# vtk DataFile Version 3.0
DG Mesh Data Export
ASCII
DATASET UNSTRUCTURED_GRID
POINTS 564 double
0 0 0
0 0 0.00625
0.00714286 0 0
0.00714286 0 0.00625
0.0142857 0 0
0.0142857 0 0.00625
0.0214286 0 0
0.0214286 0 0.00625
0.0285714 0 0
0.0285714 0 0.00625
0.0357143 0 0
0.0357143 0 0.00625
0.0428571 0 0
0.0428571 0 0.00625
0.05 0 0
0.05 0 0.00625
0.0571429 0 0
0.0571429 0 0.00625
0.0642857 0 0
0.0642857 0 0.00625
0.0714286 0 0
0.0714286 0 0.00625
0.0785714 0 0
0.0785714 0 0.00625
0.0857143 0 0
0.0857143 0 0.00625
0.0928571 0 0
0.0928571 0 0.00625
0.1 0 0
0.1 0 0.00625
0.107143 0 0
0.107143 0 0.00625
0.114286 0 0
0.114286 0 0.00625
0.121429 0 0
0.121429 0 0.00625
0.128571 0 0
0.128571 0 0.00625
0.135714 0 0
0.135714 0 0.00625
0.142857 0 0
0.142857 0 0.00625
0.15 0 0
0.15 0 0.00625
0.157143 0 0
0.157143 0 0.00625
0.164286 0 0
0.164286 0 0.00625
0.171429 0 0
0.171429 0 0.00625
0.178571 0 0
0.178571 0 0.00625
0.185714 0 0
0.185714 0 0.00625
0.192857 0 0
0.192857 0 0.00625
0.2 0 0
0.2 0 0.00625
0.207143 0 0
0.207143 0 0.00625
0.214286 0 0
0.214286 0 0.00625
0.221429 0 0
0.221429 0 0.00625
0.228571 0 0
0.228571 0 0.00625
0.235714 0 0
0.235714 0 0.00625
0.242857 0 0
0.242857 0 0.00625
0.25 0 0
0.25 0 0.00625
0.257143 0 0
0.257143 0 0.00625
0.264286 0 0
0.264286 0 0.00625
0.271429 0 0
0.271429 0 0.00625
0.278571 0 0
0.278571 0 0.00625
0.285714 0 0
0.285714 0 0.00625
0.292857 0 0
0.292857 0 0.00625
0.3 0 0
0.3 0 0.00625
0.307143 0 0
0.307143 0 0.00625
0.314286 0 0
0.314286 0 0.00625
0.321429 0 0
0.321429 0 0.00625
0.328571 0 0
0.328571 0 0.00625
0.335714 0 0
0.335714 0 0.00625
0.342857 0 0
0.342857 0 0.00625
0.35 0 0
0.35 0 0.00625
0.357143 0 0
0.357143 0 0.00625
0.364286 0 0
0.364286 0 0.00625
0.371429 0 0
0.371429 0 0.00625
0.378571 0 0
0.378571 0 0.00625
0.385714 0 0
0.385714 0 0.00625
0.392857 0 0
0.392857 0 0.00625
0.4 0 0
0.4 0 0.00625
0.407143 0 0
0.407143 0 0.00625
0.414286 0 0
0.414286 0 0.00625
0.421429 0 0
0.421429 0 0.00625
0.428571 0 0
0.428571 0 0.00625
0.435714 0 0
0.435714 0 0.00625
0.442857 0 0
0.442857 0 0.00625
0.45 0 0
0.45 0 0.00625
0.457143 0 0
0.457143 0 0.00625
0.464286 0 0
0.464286 0 0.00625
0.471429 0 0
0.471429 0 0.00625
0.478571 0 0
0.478571 0 0.00625
0.485714 0 0
0.485714 0 0.00625
0.492857 0 0
0.492857 0 0.00625
0.5 0 0
0.5 0 0.00625
0.507143 0 0
0.507143 0 0.00625
0.514286 0 0
0.514286 0 0.00625
0.521429 0 0
0.521429 0 0.00625
0.528571 0 0
0.528571 0 0.00625
0.535714 0 0
0.535714 0 0.00625
0.542857 0 0
0.542857 0 0.00625
0.55 0 0
0.55 0 0.00625
0.557143 0 0
0.557143 0 0.00625
0.564286 0 0
0.564286 0 0.00625
0.571429 0 0
0.571429 0 0.00625
0.578571 0 0
0.578571 0 0.00625
0.585714 0 0
0.585714 0 0.00625
0.592857 0 0
0.592857 0 0.00625
0.6 0 0
0.6 0 0.00625
0.607143 0 0
0.607143 0 0.00625
0.614286 0 0
0.614286 0 0.00625
0.621429 0 0
0.621429 0 0.00625
0.628571 0 0
0.628571 0 0.00625
0.635714 0 0
0.635714 0 0.00625
0.642857 0 0
0.642857 0 0.00625
0.65 0 0
0.65 0 0.00625
0.657143 0 0
0.657143 0 0.00625
0.664286 0 0
0.664286 0 0.00625
0.671429 0 0
0.671429 0 0.00625
0.678571 0 0
0.678571 0 0.00625
0.685714 0 0
0.685714 0 0.00625
0.692857 0 0
0.692857 0 0.00625
0.7 0 0
0.7 0 0.00625
0.707143 0 0
0.707143 0 0.00625
0.714286 0 0
0.714286 0 0.00625
0.721429 0 0
0.721429 0 0.00625
0.728571 0 0
0.728571 0 0.00625
0.735714 0 0
0.735714 0 0.00625
0.742857 0 0
0.742857 0 0.00625
0.75 0 0
0.75 0 0.00625
0.757143 0 0
0.757143 0 0.00625
0.764286 0 0
0.764286 0 0.00625
0.771429 0 0
0.771429 0 0.00625
0.778571 0 0
0.778571 0 0.00625
0.785714 0 0
0.785714 0 0.00625
0.792857 0 0
0.792857 0 0.00625
0.8 0 0
0.8 0 0.00625
0.807143 0 0
0.807143 0 0.00625
0.814286 0 0
0.814286 0 0.00625
0.821429 0 0
0.821429 0 0.00625
0.828571 0 0
0.828571 0 0.00625
0.835714 0 0
0.835714 0 0.00625
0.842857 0 0
0.842857 0 0.00625
0.85 0 0
0.85 0 0.00625
0.857143 0 0
0.857143 0 0.00625
0.864286 0 0
0.864286 0 0.00625
0.871429 0 0
0.871429 0 0.00625
0.878571 0 0
0.878571 0 0.00625
0.885714 0 0
0.885714 0 0.00625
0.892857 0 0
0.892857 0 0.00625
0.9 0 0
0.9 0 0.00625
0.907143 0 0
0.907143 0 0.00625
0.914286 0 0
0.914286 0 0.00625
0.921429 0 0
0.921429 0 0.00625
0.928571 0 0
0.928571 0 0.00625
0.935714 0 0
0.935714 0 0.00625
0.942857 0 0
0.942857 0 0.00625
0.95 0 0
0.95 0 0.00625
0.957143 0 0
0.957143 0 0.00625
0.964286 0 0
0.964286 0 0.00625
0.971429 0 0
0.971429 0 0.00625
0.978571 0 0
0.978571 0 0.00625
0.985714 0 0
0.985714 0 0.00625
0.992857 0 0
0.992857 0 0.00625
1 0 0
1 0 0.00625
1 0.00625 0
1 0.00625 0.00625
0.992857 0.00625 0
0.992857 0.00625 0.00625
0.985714 0.00625 0
0.985714 0.00625 0.00625
0.978571 0.00625 0
0.978571 0.00625 0.00625
0.971429 0.00625 0
0.971429 0.00625 0.00625
0.964286 0.00625 0
0.964286 0.00625 0.00625
0.957143 0.00625 0
0.957143 0.00625 0.00625
0.95 0.00625 0
0.95 0.00625 0.00625
0.942857 0.00625 0
0.942857 0.00625 0.00625
0.935714 0.00625 0
0.935714 0.00625 0.00625
0.928571 0.00625 0
0.928571 0.00625 0.00625
0.921429 0.00625 0
0.921429 0.00625 0.00625
0.914286 0.00625 0
0.914286 0.00625 0.00625
0.907143 0.00625 0
0.907143 0.00625 0.00625
0.9 0.00625 0
0.9 0.00625 0.00625
0.892857 0.00625 0
0.892857 0.00625 0.00625
0.885714 0.00625 0
0.885714 0.00625 0.00625
0.878571 0.00625 0
0.878571 0.00625 0.00625
0.871429 0.00625 0
0.871429 0.00625 0.00625
0.864286 0.00625 0
0.864286 0.00625 0.00625
0.857143 0.00625 0
0.857143 0.00625 0.00625
0.85 0.00625 0
0.85 0.00625 0.00625
0.842857 0.00625 0
0.842857 0.00625 0.00625
0.835714 0.00625 0
0.835714 0.00625 0.00625
0.828571 0.00625 0
0.828571 0.00625 0.00625
0.821429 0.00625 0
0.821429 0.00625 0.00625
0.814286 0.00625 0
0.814286 0.00625 0.00625
0.807143 0.00625 0
0.807143 0.00625 0.00625
0.8 0.00625 0
0.8 0.00625 0.00625
0.792857 0.00625 0
0.792857 0.00625 0.00625
0.785714 0.00625 0
0.785714 0.00625 0.00625
0.778571 0.00625 0
0.778571 0.00625 0.00625
0.771429 0.00625 0
0.771429 0.00625 0.00625
0.764286 0.00625 0
0.764286 0.00625 0.00625
0.757143 0.00625 0
0.757143 0.00625 0.00625
0.75 0.00625 0
0.75 0.00625 0.00625
0.742857 0.00625 0
0.742857 0.00625 0.00625
0.735714 0.00625 0
0.735714 0.00625 0.00625
0.728571 0.00625 0
0.728571 0.00625 0.00625
0.721429 0.00625 0
0.721429 0.00625 0.00625
0.714286 0.00625 0
0.714286 0.00625 0.00625
0.707143 0.00625 0
0.707143 0.00625 0.00625
0.7 0.00625 0
0.7 0.00625 0.00625
0.692857 0.00625 0
0.692857 0.00625 0.00625
0.685714 0.00625 0
0.685714 0.00625 0.00625
0.678571 0.00625 0
0.678571 0.00625 0.00625
0.671429 0.00625 0
0.671429 0.00625 0.00625
0.664286 0.00625 0
0.664286 0.00625 0.00625
0.657143 0.00625 0
0.657143 0.00625 0.00625
0.65 0.00625 0
0.65 0.00625 0.00625
0.642857 0.00625 0
0.642857 0.00625 0.00625
0.635714 0.00625 0
0.635714 0.00625 0.00625
0.628571 0.00625 0
0.628571 0.00625 0.00625
0.621429 0.00625 0
0.621429 0.00625 0.00625
0.614286 0.00625 0
0.614286 0.00625 0.00625
0.607143 0.00625 0
0.607143 0.00625 0.00625
0.6 0.00625 0
0.6 0.00625 0.00625
0.592857 0.00625 0
0.592857 0.00625 0.00625
0.585714 0.00625 0
0.585714 0.00625 0.00625
0.578571 0.00625 0
0.578571 0.00625 0.00625
0.571429 0.00625 0
0.571429 0.00625 0.00625
0.564286 0.00625 0
0.564286 0.00625 0.00625
0.557143 0.00625 0
0.557143 0.00625 0.00625
0.55 0.00625 0
0.55 0.00625 0.00625
0.542857 0.00625 0
0.542857 0.00625 0.00625
0.535714 0.00625 0
0.535714 0.00625 0.00625
0.528571 0.00625 0
0.528571 0.00625 0.00625
0.521429 0.00625 0
0.521429 0.00625 0.00625
0.514286 0.00625 0
0.514286 0.00625 0.00625
0.507143 0.00625 0
0.507143 0.00625 0.00625
0.5 0.00625 0
0.5 0.00625 0.00625
0.492857 0.00625 0
0.492857 0.00625 0.00625
0.485714 0.00625 0
0.485714 0.00625 0.00625
0.478571 0.00625 0
0.478571 0.00625 0.00625
0.471429 0.00625 0
0.471429 0.00625 0.00625
0.464286 0.00625 0
0.464286 0.00625 0.00625
0.457143 0.00625 0
0.457143 0.00625 0.00625
0.45 0.00625 0
0.45 0.00625 0.00625
0.442857 0.00625 0
0.442857 0.00625 0.00625
0.435714 0.00625 0
0.435714 0.00625 0.00625
0.428571 0.00625 0
0.428571 0.00625 0.00625
0.421429 0.00625 0
0.421429 0.00625 0.00625
0.414286 0.00625 0
0.414286 0.00625 0.00625
0.407143 0.00625 0
0.407143 0.00625 0.00625
0.4 0.00625 0
0.4 0.00625 0.00625
0.392857 0.00625 0
0.392857 0.00625 0.00625
0.385714 0.00625 0
0.385714 0.00625 0.00625
0.378571 0.00625 0
0.378571 0.00625 0.00625
0.371429 0.00625 0
0.371429 0.00625 0.00625
0.364286 0.00625 0
0.364286 0.00625 0.00625
0.357143 0.00625 0
0.357143 0.00625 0.00625
0.35 0.00625 0
0.35 0.00625 0.00625
0.342857 0.00625 0
0.342857 0.00625 0.00625
0.335714 0.00625 0
0.335714 0.00625 0.00625
0.328571 0.00625 0
0.328571 0.00625 0.00625
0.321429 0.00625 0
0.321429 0.00625 0.00625
0.314286 0.00625 0
0.314286 0.00625 0.00625
0.307143 0.00625 0
0.307143 0.00625 0.00625
0.3 0.00625 0
0.3 0.00625 0.00625
0.292857 0.00625 0
0.292857 0.00625 0.00625
0.285714 0.00625 0
0.285714 0.00625 0.00625
0.278571 0.00625 0
0.278571 0.00625 0.00625
0.271429 0.00625 0
0.271429 0.00625 0.00625
0.264286 0.00625 0
0.264286 0.00625 0.00625
0.257143 0.00625 0
0.257143 0.00625 0.00625
0.25 0.00625 0
0.25 0.00625 0.00625
0.242857 0.00625 0
0.242857 0.00625 0.00625
0.235714 0.00625 0
0.235714 0.00625 0.00625
0.228571 0.00625 0
0.228571 0.00625 0.00625
0.221429 0.00625 0
0.221429 0.00625 0.00625
0.214286 0.00625 0
0.214286 0.00625 0.00625
0.207143 0.00625 0
0.207143 0.00625 0.00625
0.2 0.00625 0
0.2 0.00625 0.00625
0.192857 0.00625 0
0.192857 0.00625 0.00625
0.185714 0.00625 0
0.185714 0.00625 0.00625
0.178571 0.00625 0
0.178571 0.00625 0.00625
0.171429 0.00625 0
0.171429 0.00625 0.00625
0.164286 0.00625 0
0.164286 0.00625 0.00625
0.157143 0.00625 0
0.157143 0.00625 0.00625
0.15 0.00625 0
0.15 0.00625 0.00625
0.142857 0.00625 0
0.142857 0.00625 0.00625
0.135714 0.00625 0
0.135714 0.00625 0.00625
0.128571 0.00625 0
0.128571 0.00625 0.00625
0.121429 0.00625 0
0.121429 0.00625 0.00625
0.114286 0.00625 0
0.114286 0.00625 0.00625
0.107143 0.00625 0
0.107143 0.00625 0.00625
0.1 0.00625 0
0.1 0.00625 0.00625
0.0928571 0.00625 0
0.0928571 0.00625 0.00625
0.0857143 0.00625 0
0.0857143 0.00625 0.00625
0.0785714 0.00625 0
0.0785714 0.00625 0.00625
[...]
CELL_DATA 840
SCALARS cell_id int 1
LOOKUP_TABLE default
0
1
2
3
4
5
6
7
8
9
10
11
12
13
14
15
16
17
18
19
20
21
22
23
24
25
26
27
28
29
30
31
32
33
34
35
36
37
38
39
40
41
42
43
44
45
46
47
48
49
50
51
52
53
54
55
56
57
58
59
60
61
62
63
64
65
66
67
68
69
70
71
72
73
74
75
76
77
78
79
80
81
82
83
84
85
86
87
88
89
90
91
92
93
94
95
96
97
98
99
100
101
102
103
104
105
106
107
108
109
110
111
112
113
114
115
116
117
118
119
120
121
122
123
124
125
126
127
128
129
130
131
132
133
134
135
136
137
138
139
140
141
142
143
144
145
146
147
148
149
150
151
152
153
154
155
156
157
158
159
160
161
162
163
164
165
166
167
168
169
170
171
172
173
174
175
176
177
178
179
180
181
182
183
184
185
186
187
188
189
190
191
192
193
194
195
196
197
198
199
200
201
202
203
204
205
206
207
208
209
210
211
212
213
214
215
216
217
218
219
220
221
222
223
224
225
226
227
228
229
230
231
232
233
234
235
236
237
238
239
240
241
242
243
244
245
246
247
248
249
250
251
252
253
254
255
256
257
258
259
260
261
262
263
264
265
266
267
268
269
270
271
272
273
274
275
276
277
278
279
280
281
282
283
284
285
286
287
288
289
290
291
292
293
294
295
296
297
298
299
300
301
302
303
304
305
306
307
308
309
310
311
312
313
314
315
316
317
318
319
320
321
322
323
324
325
326
327
328
329
330
331
332
333
334
335
336
337
338
339
340
341
342
343
344
345
346
347
348
349
350
351
352
353
354
355
356
357
358
359
360
361
362
363
364
365
366
367
368
369
370
371
372
373
374
375
376
377
378
379
380
381
382
383
384
385
386
387
388
389
390
391
392
393
394
395
396
397
398
399
400
401
402
403
404
405
406
407
408
409
410
411
412
413
414
415
416
417
418
419
420
421
422
423
424
425
426
427
428
429
430
431
432
433
434
435
436
437
438
439
440
441
442
443
444
445
446
447
448
449
450
451
452
453
454
455
456
457
458
459
460
461
462
463
464
465
466
467
468
469
470
471
472
473
474
475
476
477
478
479
480
481
482
483
484
485
486
487
488
489
490
491
492
493
494
495
496
497
498
499
500
501
502
503
504
505
506
507
508
509
510
511
512
513
514
515
516
517
518
519
520
521
522
523
524
525
526
527
528
529
530
531
532
533
534
535
536
537
538
539
540
541
542
543
544
545
546
547
548
549
550
551
552
553
554
555
556
557
558
559
560
561
562
563
564
565
566
567
568
569
570
571
572
573
574
575
576
577
578
579
580
581
582
583
584
585
586
587
588
589
590
591
592
593
594
595
596
597
598
599
600
601
602
603
604
605
606
607
608
609
610
611
612
613
614
615
616
617
618
619
620
621
622
623
624
625
626
627
628
629
630
631
632
633
634
635
636
637
638
639
640
641
642
643
644
645
646
647
648
649
650
651
652
653
654
655
656
657
658
659
660
661
662
663
664
665
666
667
668
669
670
671
672
673
674
675
676
677
678
679
680
681
682
683
684
685
686
687
688
689
690
691
692
693
694
695
696
697
698
699
700
701
702
703
704
705
706
707
708
709
710
711
712
713
714
715
716
717
718
719
720
721
722
723
724
725
726
727
728
729
730
731
732
733
734
735
736
737
738
739
740
741
742
743
744
745
746
747
748
749
750
751
752
753
754
755
756
757
758
759
760
761
762
763
764
765
766
767
768
769
770
771
772
773
774
775
776
777
778
779
780
781
782
783
784
785
786
787
788
789
790
791
792
793
794
795
796
797
798
799
800
801
802
803
804
805
806
807
808
809
810
811
812
813
814
815
816
817
818
819
820
821
822
823
824
825
826
827
828
829
830
831
832
833
834
835
836
837
838
839
SCALARS boundary_face_count int 1
LOOKUP_TABLE default
2
2
2
2
2
2
2
2
3
1
2
2
0
0
2
2
2
0
2
0
2
2
2
0
0
2
0
0
0
2
2
2
0
2
2
0
2
0
2
2
0
0
2
2
0
0
2
0
2
2
2
2
0
0
2
2
0
2
0
2
2
2
2
2
2
2
0
2
2
2
0
0
2
2
2
0
0
2
0
2
2
0
2
2
2
0
0
2
0
2
2
2
2
2
2
0
0
0
2
0
0
0
2
0
0
0
0
2
0
0
0
0
2
0
2
2
0
2
2
2
0
2
2
2
0
2
0
2
2
2
0
2
2
2
0
2
0
2
2
0
2
2
0
2
2
0
2
2
2
2
0
2
2
0
2
0
0
2
2
2
0
0
0
0
2
2
2
2
0
2
0
2
2
2
0
2
2
2
0
2
2
0
0
2
0
0
2
2
2
2
0
2
2
0
2
2
2
2
2
2
2
0
0
2
2
0
2
2
2
2
2
2
0
2
0
2
0
2
2
2
2
2
0
2
2
2
0
0
2
2
2
0
0
0
2
2
2
2
0
2
2
0
2
2
0
0
2
0
2
2
2
2
2
2
2
2
2
2
2
0
2
2
0
2
0
2
2
0
0
2
0
0
2
0
2
0
0
2
2
2
2
0
2
0
0
0
2
0
0
2
2
2
2
2
0
0
0
2
2
2
2
2
2
0
0
2
0
2
0
0
0
2
0
0
0
2
2
2
0
2
2
2
2
0
0
2
2
2
2
2
0
2
2
2
0
2
2
2
2
2
2
2
2
2
0
0
2
2
2
0
2
0
2
0
2
2
0
0
0
0
0
2
2
0
2
2
2
2
2
0
2
2
0
2
2
2
2
2
0
2
2
2
2
2
2
0
2
2
2
2
2
2
2
2
0
2
2
2
0
0
2
2
2
2
2
2
2
2
2
2
2
2
0
2
2
2
2
0
0
2
2
2
0
0
2
2
2
2
0
2
0
2
0
2
0
2
2
2
2
2
2
2
2
2
2
2
0
2
2
0
2
2
0
0
2
0
2
2
2
2
2
0
3
0
2
2
2
2
0
0
0
0
2
0
0
2
0
0
2
2
0
2
2
2
2
2
2
0
0
0
2
2
0
2
2
2
0
2
0
0
0
2
2
0
2
2
2
2
0
2
2
0
0
2
0
0
0
2
2
2
2
2
0
2
0
2
0
2
2
2
2
2
2
0
0
0
0
2
0
0
2
2
0
2
2
0
2
2
2
2
2
2
0
0
0
0
0
0
2
0
0
2
0
0
2
0
0
2
2
2
0
0
0
2
2
0
2
0
2
2
2
2
0
2
2
0
2
0
2
2
0
2
2
2
0
0
0
2
2
2
2
2
2
0
0
2
0
0
2
2
2
0
0
2
0
2
0
0
2
0
2
0
2
2
2
2
0
2
0
2
2
2
2
2
2
2
2
2
2
2
0
2
2
2
2
2
2
2
0
2
2
2
0
2
2
2
2
0
2
2
2
2
2
2
2
2
2
2
2
2
2
0
2
2
0
2
2
0
2
2
0
2
2
0
2
0
2
2
2
2
0
2
2
2
2
2
0
2
2
2
0
2
2
2
2
2
0
2
2
2
0
2
2
0
2
2
2
2
2
2
2
2
2
2
2
2
2
2
2
2
2
2
2
2
2
2
0
2
2
2
2
2
2
0
2
2
2
2
2
2
2
2
2
0
2
2
2
2
2
0
0
2
0
2
2
2
2
0
0
2
2
0
0
2
2
0
2
2
2
2
0
2
2
2
2
2
2
0
2
2
0
0
2
2
2
0
0
2
0
2
2
2
0
2
2
0
2
2
2
2
2
2
2
2
0
2
0
2
2
2
2
0
0
0
2
2
0
2
2
0
0
0
0
2
2
2
0
0
1
2
SCALARS neighbor_count int 1
LOOKUP_TABLE default
2
2
2
2
2
2
2
2
1
3
2
2
4
4
2
2
2
4
2
4
2
2
2
4
4
2
4
4
4
2
2
2
4
2
2
4
2
4
2
2
4
4
2
2
4
4
2
4
2
2
2
2
4
4
2
2
4
2
4
2
2
2
2
2
2
2
4
2
2
2
4
4
2
2
2
4
4
2
4
2
2
4
2
2
2
4
4
2
4
2
2
2
2
2
2
4
4
4
2
4
4
4
2
4
4
4
4
2
4
4
4
4
2
4
2
2
4
2
2
2
4
2
2
2
4
2
4
2
2
2
4
2
2
2
4
2
4
2
2
4
2
2
4
2
2
4
2
2
2
2
4
2
2
4
2
4
4
2
2
2
4
4
4
4
2
2
2
2
4
2
4
2
2
2
4
2
2
2
4
2
2
4
4
2
4
4
2
2
2
2
4
2
2
4
2
2
2
2
2
2
2
4
4
2
2
4
2
2
2
2
2
2
4
2
4
2
4
2
2
2
2
2
4
2
2
2
4
4
2
2
2
4
4
4
2
2
2
2
4
2
2
4
2
2
4
4
2
4
2
2
2
2
2
2
2
2
2
2
2
4
2
2
4
2
4
2
2
4
4
2
4
4
2
4
2
4
4
2
2
2
2
4
2
4
4
4
2
4
4
2
2
2
2
2
4
4
4
2
2
2
2
2
2
4
4
2
4
2
4
4
4
2
4
4
4
2
2
2
4
2
2
2
2
4
4
2
2
2
2
2
4
2
2
2
4
2
2
2
2
2
2
2
2
2
4
4
2
2
2
4
2
4
2
4
2
2
4
4
4
4
4
2
2
4
2
2
2
2
2
4
2
2
4
2
2
2
2
2
4
2
2
2
2
2
2
4
2
2
2
2
2
2
2
2
4
2
2
2
4
4
2
2
2
2
2
2
2
2
2
2
2
2
4
2
2
2
2
4
4
2
2
2
4
4
2
2
2
2
4
2
4
2
4
2
4
2
2
2
2
2
2
2
2
2
2
2
4
2
2
4
2
2
4
4
2
4
2
2
2
2
2
4
1
4
2
2
2
2
4
4
4
4
2
4
4
2
4
4
2
2
4
2
2
2
2
2
2
4
4
4
2
2
4
2
2
2
4
2
4
4
4
2
2
4
2
2
2
2
4
2
2
4
4
2
4
4
4
2
2
2
2
2
4
2
4
2
4
2
2
2
2
2
2
4
4
4
4
2
4
4
2
2
4
2
2
4
2
2
2
2
2
2
4
4
4
4
4
4
2
4
4
2
4
4
2
4
4
2
2
2
4
4
4
2
2
4
2
4
2
2
2
2
4
2
2
4
2
4
2
2
4
2
2
2
4
4
4
2
2
2
2
2
2
4
4
2
4
4
2
2
2
4
4
2
4
2
4
4
2
4
2
4
2
2
2
2
4
2
4
2
2
2
2
2
2
2
2
2
2
2
4
2
2
2
2
2
2
2
4
2
2
2
4
2
2
2
2
4
2
2
2
2
2
2
2
2
2
2
2
2
2
4
2
2
4
2
2
4
2
2
4
2
2
4
2
4
2
2
2
2
4
2
2
2
2
2
4
2
2
2
4
2
2
2
2
2
4
2
2
2
4
2
2
4
2
2
2
2
2
2
2
2
2
2
2
2
2
2
2
2
2
2
2
2
2
2
4
2
2
2
2
2
2
4
2
2
2
2
2
2
2
2
2
4
2
2
2
2
2
4
4
2
4
2
2
2
2
4
4
2
2
4
4
2
2
4
2
2
2
2
4
2
2
2
2
2
2
4
2
2
4
4
2
2
2
4
4
2
4
2
2
2
4
2
2
4
2
2
2
2
2
2
2
2
4
2
4
2
2
2
2
4
4
4
2
2
4
2
2
4
4
4
4
2
2
2
4
4
3
2

POINT_DATA 564
SCALARS point_id int 1
LOOKUP_TABLE default
0
1
2
3
4
5
6
7
8
9
10
11
12
13
14
15
16
17
18
19
20
21
22
23
24
25
26
27
28
29
30
31
32
33
34
35
36
37
38
39
40
41
42
43
44
45
46
47
48
49
50
51
52
53
54
55
56
57
58
59
60
61
62
63
64
65
66
67
68
69
70
71
72
73
74
75
76
77
78
79
80
81
82
83
84
85
86
87
88
89
90
91
92
93
94
95
96
97
98
99
100
101
102
103
104
105
106
107
108
109
110
111
112
113
114
115
116
117
118
119
120
121
122
123
124
125
126
127
128
129
130
131
132
133
134
135
136
137
138
139
140
141
142
143
144
145
146
147
148
149
150
151
152
153
154
155
156
157
158
159
160
161
162
163
164
165
166
167
168
169
170
171
172
173
174
175
176
177
178
179
180
181
182
183
184
185
186
187
188
189
190
191
192
193
194
195
196
197
198
199
200
201
202
203
204
205
206
207
208
209
210
211
212
213
214
215
216
217
218
219
220
221
222
223
224
225
226
227
228
229
230
231
232
233
234
235
236
237
238
239
240
241
242
243
244
245
246
247
248
249
250
251
252
253
254
255
256
257
258
259
260
261
262
263
264
265
266
267
268
269
270
271
272
273
274
275
276
277
278
279
280
281
282
283
284
285
286
287
288
289
290
291
292
293
294
295
296
297
298
299
300
301
302
303
304
305
306
307
308
309
310
311
312
313
314
315
316
317
318
319
320
321
322
323
324
325
326
327
328
329
330
331
332
333
334
335
336
337
338
339
340
341
342
343
344
345
346
347
348
349
350
351
352
353
354
355
356
357
358
359
360
361
362
363
364
365
366
367
368
369
370
371
372
373
374
375
376
377
378
379
380
381
382
383
384
385
386
387
388
389
390
391
392
393
394
395
396
397
398
399
400
401
402
403
404
405
406
407
408
409
410
411
412
413
414
415
416
417
418
419
420
421
422
423
424
425
426
427
428
429
430
431
432
433
434
435
436
437
438
439
440
441
442
443
444
445
446
447
448
449
450
451
452
453
454
455
456
457
458
459
460
461
462
463
464
465
466
467
468
469
470
471
472
473
474
475
476
477
478
479
480
481
482
483
484
485
486
487
488
489
490
491
492
493
494
495
496
497
498
499
500
501
502
503
504
505
506
507
508
509
510
511
512
513
514
515
516
517
518
519
520
521
522
523
524
525
526
527
528
529
530
531
532
533
534
535
536
537
538
539
540
541
542
543
544
545
546
547
548
549
550
551
552
553
554
555
556
557
558
559
560
561
562
563
SCALARS is_boundary_point int 1
LOOKUP_TABLE default
1
1
1
1
1
1
1
1
1
1
1
1
1
1
1
1
1
1
1
1
1
1
1
1
1
1
1
1
1
1
1
1
1
1
1
1
1
1
1
1
1
1
1
1
1
1
1
1
1
1
1
1
1
1
1
1
1
1
1
1
1
1
1
1
1
1
1
1
1
1
1
1
1
1
1
1
1
1
1
1
1
1
1
1
1
1
1
1
1
1
1
1
1
1
1
1
1
1
1
1
1
1
1
1
1
1
1
1
1
1
1
1
1
1
1
1
1
1
1
1
1
1
1
1
1
1
1
1
1
1
1
1
1
1
1
1
1
1
1
1
1
1
1
1
1
1
1
1
1
1
1
1
1
1
1
1
1
1
1
1
1
1
1
1
1
1
1
1
1
1
1
1
1
1
1
1
1
1
1
1
1
1
1
1
1
1
1
1
1
1
1
1
1
1
1
1
1
1
1
1
1
1
1
1
1
1
1
1
1
1
1
1
1
1
1
1
1
1
1
1
1
1
1
1
1
1
1
1
1
1
1
1
1
1
1
1
1
1
1
1
1
1
1
1
1
1
1
1
1
1
1
1
1
1
1
1
1
1
1
1
1
1
1
1
1
1
1
1
1
1
1
1
1
1
1
1
1
1
1
1
1
1
1
1
1
1
1
1
1
1
1
1
1
1
1
1
1
1
1
1
1
1
1
1
1
1
1
1
1
1
1
1
1
1
1
1
1
1
1
1
1
1
1
1
1
1
1
1
1
1
1
1
1
1
1
1
1
1
1
1
1
1
1
1
1
1
1
1
1
1
1
1
1
1
1
1
1
1
1
1
1
1
1
1
1
1
1
1
1
1
1
1
1
1
1
1
1
1
1
1
1
1
1
1
1
1
1
1
1
1
1
1
1
1
1
1
1
1
1
1
1
1
1
1
1
1
1
1
1
1
1
1
1
1
1
1
1
1
1
1
1
1
1
1
1
1
1
1
1
1
1
1
1
1
1
1
1
1
1
1
1
1
1
1
1
1
1
1
1
1
1
1
1
1
1
1
1
1
1
1
1
1
1
1
1
1
1
1
1
1
1
1
1
1
1
1
1
1
1
1
1
1
1
1
1
1
1
1
1
1
1
1
1
1
1
1
1
1
1
1
1
1
1
1
1
1
1
1
1
1
1
1
1
1
1
1
1
1
1
1
1
1
1
1
1
1
1
1
1
1
1
1
1
1
1
1
1
1
1
1
1
1
1
1
1
1
1
1
1
1
1
1
1
1
1
1
1
1
1
1
1
1
1
1

CELL_DATA 840
SCALARS face_ids int 4
LOOKUP_TABLE default
1520 941 1240 1159 
1248 1872 1885 1266 
1305 1458 1342 1348 
1431 1216 1328 1596 
1165 1231 1006 1937 
1293 1741 1546 1236 
1255 1276 1201 1157 
1283 1650 1362 1254 
1115 1155 1235 1371 
1985 1371 1157 848 
950 1182 1033 1564 
1396 1181 1349 1390 
899 755 1368 1296 
1221 1312 1076 897 
1503 1166 1341 1985 
1365 1225 1151 1053 
786 1694 1124 1394 
1341 2068 1132 1255 
1126 2068 1883 1111 
1096 1558 1278 1479 
1093 1527 1707 1507 
1082 1778 1482 1921 
1224 1077 1044 1018 
1325 770 2220 2015 
1491 1143 1170 1373 
1597 1384 853 2020 
1918 1834 1075 1877 
1000 1282 1330 1122 
956 1897 1265 1037 
1039 1818 1035 770 
1133 1048 989 1154 
1301 1581 723 1028 
1334 1657 1049 2092 
1798 1434 1397 1400 
1292 2191 1411 2164 
1417 1420 1426 701 
1098 1436 1730 1000 
1213 1442 1997 1186 
1379 1943 1122 968 
855 1444 1468 1189 
1593 1192 1485 2032 
1404 1229 1625 1237 
2073 1604 1335 1487 
1498 1258 1530 1511 
1574 1453 932 1531 
1459 750 2124 1545 
844 1432 1478 1090 
1547 824 905 1552 
1553 1387 1523 2086 
1572 1771 1435 2005 
1454 1245 1456 1573 
883 1629 1393 1406 
1198 1575 1551 1056 
1316 1722 1583 1394 
1589 2049 1253 772 
1579 888 1878 1428 
1267 1372 946 1599 
1601 1127 1605 1079 
1611 1525 1262 1130 
1615 1414 766 1501 
908 1407 1163 1130 
1570 1622 1232 1897 
1273 1657 1068 1312 
2171 1627 1421 1628 
1252 963 1933 1632 
1326 1285 1619 981 
1284 930 1090 1430 
1521 2229 1639 1422 
1023 1010 1801 1005 
1565 1003 999 994 
1801 992 1671 987 
986 1438 978 976 
1129 973 971 969 
975 1802 966 1464 
1064 2148 769 961 
959 1081 957 1212 
1369 1422 997 954 
887 1559 792 2027 
1270 1048 1357 943 
1203 2232 940 974 
1199 936 713 1279 
1210 935 1624 2170 
1086 755 2055 1433 
797 1526 926 2198 
833 925 922 1041 
919 948 914 913 
1655 1181 912 906 
895 1588 890 1282 
1073 979 1966 885 
1499 884 877 730 
827 870 2187 1902 
1672 970 1429 867 
1121 1796 862 859 
1833 1338 742 1161 
849 842 1412 841 
1563 1818 1315 840 
832 1939 831 830 
1501 960 891 826 
1462 929 1437 825 
1343 1627 1106 1239 
1177 1665 1061 1619 
1289 1728 828 894 
869 820 1034 1104 
1223 1741 817 816 
2188 815 927 872 
813 903 1592 1554 
1571 1582 1288 807 
802 801 2183 2102 
1196 1799 2116 794 
823 1652 1144 1065 
1083 1791 880 1335 
1535 1171 1078 1381 
1476 2026 1080 1322 
1005 1051 790 785 
805 878 1496 783 
1194 782 1190 1274 
780 1584 778 1493 
1149 1448 774 781 
728 1008 737 773 
1795 1978 2124 1027 
1823 1046 1375 1402 
1029 1461 768 767 
1057 1287 1842 765 
799 761 846 1583 
1670 1542 1249 1437 
1183 852 760 1816 
1134 1401 1145 758 
1630 1481 1102 1345 
1925 1116 1515 956 
1366 1584 753 748 
1141 1461 1905 2034 
1578 1031 2121 747 
1783 1744 1595 740 
738 1488 2096 736 
1562 1069 729 1045 
1004 1602 1299 726 
803 724 902 721 
1353 1652 995 1598 
719 718 945 1055 
1853 2047 2145 709 
1220 764 707 1665 
700 1621 698 696 
1605 1097 1108 1990 
821 857 915 919 
1013 1024 695 1642 
1643 1645 1087 1236 
1646 1647 1649 1651 
1653 1284 1656 1659 
1660 2081 921 1666 
2077 1668 1675 1677 
1679 1446 1682 1684 
1686 1688 1088 1689 
1690 1617 1761 1699 
1695 1696 1700 1703 
835 2056 1711 813 
1712 2110 1940 1042 
1926 1717 1667 1576 
1167 1491 1934 1765 
1410 1226 1718 960 
1923 1721 1724 933 
1726 1729 879 1399 
1731 1721 2131 1733 
1355 868 1620 1738 
1702 1559 1739 1740 
1585 1742 1745 1188 
1489 1749 993 1556 
1750 1752 1753 1756 
1758 2222 1759 1762 
1537 1716 1091 1764 
1766 2234 1767 1655 
1287 1064 1027 1769 
1233 1770 1773 1073 
1775 1777 1779 1051 
1781 2063 1334 1369 
1782 1784 1477 945 
1340 1310 1787 1789 
1790 1269 1388 1792 
1794 1303 1797 1331 
1803 1464 1250 904 
1806 1577 1809 1813 
1815 1692 863 1618 
1294 699 1817 1370 
1215 2051 1819 1906 
2193 1497 1820 1168 
1596 1634 1230 1698 
1234 864 1824 1825 
1826 2082 1830 1991 
745 1475 1673 1831 
1832 1835 1382 1784 
1836 1837 1042 1839 
1178 1274 1840 1532 
928 1843 1845 1846 
1219 733 810 1810 
1030 1092 2227 1907 
1704 1849 1853 1670 
1858 1313 893 1180 
1036 1294 1859 1860 
2207 1755 1206 1862 
1391 2051 1306 903 
1019 1864 1873 1728 
1680 1875 1510 1880 
742 1886 739 1919 
704 1888 1892 715 
808 860 1695 1893 
1896 2146 1898 806 
1193 1154 1900 1901 
1908 1912 1290 1913 
1916 1144 1874 1917 
1424 1920 2075 1636 
1922 1924 1927 1928 
1929 1247 1903 2184 
1829 1298 1932 1708 
1072 1938 1204 1218 
1941 1944 1172 1386 
1947 1950 1954 1380 
1955 716 1956 1961 
1887 1866 888 1137 
836 1964 1967 1970 
1953 1971 1567 1972 
1158 1930 938 1081 
1973 1974 1052 1063 
1173 814 1548 1591 
1214 1352 1884 1025 
1332 1850 1676 1980 
1981 1352 2172 1350 
1509 831 1734 911 
1982 1984 1200 1385 
1510 1363 1986 969 
1207 1998 2002 2004 
1524 2006 1947 2009 
754 2013 1237 2016 
988 2021 2022 1323 
1469 1928 1291 1175 
2025 2028 2146 782 
1999 1049 897 2030 
1473 2033 1931 1426 
1001 2179 1131 1138 
900 1101 1368 2036 
2152 1490 2038 1878 
2039 2041 1147 2043 
2045 1505 1178 1060 
2048 1298 837 1512 
2052 1453 1911 1118 
2089 1259 2057 2059 
1257 1059 2064 812 
2066 2069 735 1595 
1723 1968 2070 712 
798 726 2072 2074 
2076 2078 1455 1844 
2080 1624 913 1992 
1603 1979 1037 1725 
1114 2083 1359 1791 
2084 2085 2087 1593 
2113 1344 2095 2097 
2098 932 2099 1307 
2100 1915 1040 2103 
2104 1356 1568 1360 
2105 2106 779 2107 
2108 2111 1260 2112 
1202 2114 2115 958 
2117 2122 1354 2123 
1162 2125 2126 2130 
2132 1913 1822 2134 
1633 1854 1228 1320 
2093 2179 1497 2135 
1658 1793 1094 2136 
775 927 1698 2137 
2138 2139 2140 784 
1088 2141 1837 1948 
889 1089 1715 2142 
2090 1804 2147 1367 
1102 2149 2150 2151 
756 1106 1935 1271 
1026 1946 1827 1539 
1910 2153 823 1404 
1309 1617 2155 991 
1281 1904 1772 2156 
2157 2158 1416 874 
2159 1351 2161 1378 
1425 2163 1608 1879 
1184 2165 976 1662 
876 2168 2169 859 
2173 2114 2144 1113 
2161 1868 1119 1857 
2174 764 1285 2176 
1033 870 697 1279 
918 879 1710 1347 
1161 933 865 984 
1345 2177 2180 2181 
1451 1800 1439 2185 
2178 868 847 979 
2189 837 2192 2194 
2195 2199 1731 2050 
2200 2237 1119 1395 
1139 1031 2201 1280 
2202 1460 2203 1449 
2204 2208 2024 1958 
2211 2214 2215 1575 
1308 2216 2058 1109 
1502 1838 1030 1257 
2218 2221 708 2090 
1518 2223 2226 1539 
1807 2118 2228 1152 
1120 2044 2012 2230 
2009 1191 2035 2231 
2233 838 2060 1776 
2043 2212 952 1594 
934 1984 1534 2235 
1788 2236 2077 2091 
2238 2163 1974 2240 
1540 776 2241 1300 
788 1785 1571 1600 
693 2235 691 690 
1319 689 2079 688 
1022 686 683 682 
681 679 1056 917 
677 876 676 1472 
675 674 1319 673 
671 669 668 1756 
851 1620 885 667 
664 1886 662 686 
661 659 1561 816 
1641 656 655 1504 
1893 1348 654 652 
2162 651 1205 1673 
649 647 1343 986 
1403 1117 1788 645 
644 777 643 701 
642 641 2134 1021 
640 638 1364 636 
1854 1183 1507 1895 
635 634 1085 1095 
1463 633 632 630 
787 2149 1413 1059 
629 628 1812 627 
625 1882 624 1134 
622 2023 620 789 
618 689 615 1804 
875 1357 1901 614 
2168 611 666 1550 
732 1071 1277 665 
609 608 832 606 
604 678 602 1447 
600 597 1459 962 
1447 596 595 1388 
634 836 974 2112 
1467 725 594 593 
1291 592 1047 1136 
591 590 589 819 
871 1789 1553 1362 
586 584 871 658 
630 1863 1156 1710 
1409 1112 1214 1120 
725 727 2036 1433 
582 2201 581 2167 
752 1417 1267 580 
2002 579 578 617 
1548 575 1475 574 
801 573 1374 1152 
2050 1598 571 1874 
570 1452 569 567 
1645 564 2011 562 
1737 1512 561 892 
2004 560 559 685 
558 557 1142 556 
1268 555 2093 1337 
1217 554 834 924 
553 2140 551 1580 
549 1960 2239 717 
1314 545 1286 1924 
544 992 542 1799 
541 539 1535 1072 
2154 747 537 581 
536 2197 804 1654 
535 534 1557 533 
2019 532 1547 1193 
529 527 1270 1712 
526 864 525 2044 
1393 1444 524 523 
1484 905 1594 522 
1471 575 521 651 
520 519 780 2066 
516 550 1726 1325 
2160 1582 1635 1441 
515 906 1333 514 
1228 2118 513 1816 
512 815 1017 1634 
511 508 697 506 
505 1075 2156 504 
1701 750 503 1769 
1495 796 1355 1562 
1996 663 501 498 
497 495 1626 493 
491 1315 2015 2008 
1530 953 1707 490 
1587 1763 1210 1289 
489 1808 1297 1314 
488 487 746 1229 
867 486 484 2070 
483 481 479 1560 
478 1358 1398 596 
2186 1834 477 1904 
1748 1989 954 1977 
2007 476 475 1195 
548 1866 474 1490 
1610 1700 471 470 
507 2115 469 468 
531 1361 466 465 
1607 2150 812 463 
462 2145 1576 2213 
998 460 671 459 
1002 458 2074 456 
1773 455 923 1538 
623 1200 690 1105 
454 947 453 452 
607 1261 1982 518 
451 1295 652 449 
448 1159 446 1496 
597 2109 1195 445 
672 1506 2238 1540 
457 443 1549 776 
441 455 2001 1192 
1844 1041 2225 2095 
2222 1806 440 1441 
438 1696 437 1067 
436 434 1918 744 
433 1132 432 431 
1016 430 1222 486 
2182 661 506 1902 
429 1950 1256 492 
606 1067 428 471 
427 426 1563 424 
1566 1622 1979 2133 
423 937 422 1926 
421 2214 679 420 
1681 2079 1367 419 
1822 418 417 1706 
1318 1346 416 415 
413 2182 1223 1714 
412 2022 721 411 
1066 1661 410 1736 
1841 1286 409 763 
408 407 907 1892 
1446 406 405 1296 
404 403 401 807 
400 2047 399 1717 
772 1651 398 1541 
699 397 396 1500 
1848 473 882 793 
882 1678 1197 730 
395 1238 1566 803 
394 393 1234 1198 
392 1138 391 1820 
389 388 656 387 
901 1963 385 481 
717 1350 383 382 
722 1685 785 380 
692 379 1544 376 
1329 881 374 448 
373 1720 894 1264 
372 1108 1479 371 
632 941 878 370 
369 368 367 366 
1182 1199 1386 1636 
886 1097 1009 1558 
365 627 364 363 
362 2141 601 2110 
2062 2131 984 361 
670 359 475 1020 
358 357 1313 2158 
1515 1713 356 687 
1040 985 355 1793 
619 1949 354 1430 
695 1602 458 353 
1328 1226 657 351 
1100 350 2120 2169 
1642 1189 2067 349 
2183 347 1034 346 
822 344 988 2154 
343 342 668 1682 
1568 947 1952 1614 
341 388 2091 530 
340 1590 1469 339 
338 1606 1702 2152 
336 334 1811 330 
2175 1327 1543 1891 
329 1486 327 1894 
624 874 326 325 
324 1628 323 1935 
322 320 319 1751 
318 316 2138 322 
1805 1812 315 1609 
1842 314 1567 961 
1814 2219 817 1087 
1375 312 1244 650 
375 310 910 693 