# vtk DataFile Version 3.0
DG Mesh Data Export
ASCII
DATASET UNSTRUCTURED_GRID
POINTS 20 double
0 0 0
0 0 0.433
0.5 0 0
0.5 0 0.433
1 0 0
1 0 0.433
1 0.433 0
1 0.433 0.433
0.5 0.433 0
0.5 0.433 0.433
0 0.433 0
0 0.433 0.433
0.25 0 0
0.25 0 0.433
0.25 0.433 0
0.25 0.433 0.433
0.75 0 0
0.75 0 0.433
0.75 0.433 0
0.75 0.433 0.433

CELLS 24 120
4 18 4 6 19
4 6 4 5 19
4 12 10 11 14
4 10 1 0 12
4 11 1 12 13
4 13 2 14 15
4 9 3 16 17
4 16 8 9 18
4 18 9 17 19
4 2 8 3 16
4 8 2 3 15
4 2 8 14 15
4 14 11 13 15
4 7 6 5 19
4 1 10 11 12
4 8 3 9 15
4 2 12 13 14
4 12 11 13 14
4 13 3 2 15
4 3 8 9 16
4 4 16 17 18
4 16 9 17 18
4 17 4 18 19
4 17 5 4 19

CELL_TYPES 24
10
10
10
10
10
10
10
10
10
10
10
10
10
10
10
10
10
10
10
10
10
10
10
10

CELL_DATA 24
SCALARS cell_id int 1
LOOKUP_TABLE default
0
1
2
3
4
5
6
7
8
9
10
11
12
13
14
15
16
17
18
19
20
21
22
23
SCALARS boundary_face_count int 1
LOOKUP_TABLE default
2
1
2
3
2
0
2
2
2
2
0
2
2
3
1
2
2
0
2
0
2
0
0
2
SCALARS neighbor_count int 1
LOOKUP_TABLE default
2
3
2
1
2
4
2
2
2
2
4
2
2
1
3
2
2
4
2
4
2
4
4
2

POINT_DATA 20
SCALARS point_id int 1
LOOKUP_TABLE default
0
1
2
3
4
5
6
7
8
9
10
11
12
13
14
15
16
17
18
19
SCALARS is_boundary_point int 1
LOOKUP_TABLE default
1
1
1
1
1
1
1
1
1
1
1
1
1
1
1
1
1
1
1
1

CELL_DATA 24
SCALARS face_ids int 4
LOOKUP_TABLE default
19 23 21 34 
28 34 30 33 
20 54 22 32 
35 15 17 46 
13 29 14 27 
10 36 51 63 
9 12 50 62 
31 7 39 41 
57 38 42 43 
45 48 37 24 
45 25 49 52 
16 25 63 59 
40 55 51 47 
53 56 8 30 
26 15 13 20 
58 49 18 61 
64 60 10 65 
14 22 65 40 
11 44 36 52 
58 24 9 31 
6 5 4 3 
50 39 3 57 
4 2 42 23 
1 0 2 33 
