# vtk DataFile Version 3.0
DG Mesh Data Export
ASCII
DATASET UNSTRUCTURED_GRID
POINTS 324 double
0 0 0
0 0 0.02165
0.025 0 0
0.025 0 0.02165
0.05 0 0
0.05 0 0.02165
0.075 0 0
0.075 0 0.02165
0.1 0 0
0.1 0 0.02165
0.125 0 0
0.125 0 0.02165
0.15 0 0
0.15 0 0.02165
0.175 0 0
0.175 0 0.02165
0.2 0 0
0.2 0 0.02165
0.225 0 0
0.225 0 0.02165
0.25 0 0
0.25 0 0.02165
0.275 0 0
0.275 0 0.02165
0.3 0 0
0.3 0 0.02165
0.325 0 0
0.325 0 0.02165
0.35 0 0
0.35 0 0.02165
0.375 0 0
0.375 0 0.02165
0.4 0 0
0.4 0 0.02165
0.425 0 0
0.425 0 0.02165
0.45 0 0
0.45 0 0.02165
0.475 0 0
0.475 0 0.02165
0.5 0 0
0.5 0 0.02165
0.525 0 0
0.525 0 0.02165
0.55 0 0
0.55 0 0.02165
0.575 0 0
0.575 0 0.02165
0.6 0 0
0.6 0 0.02165
0.625 0 0
0.625 0 0.02165
0.65 0 0
0.65 0 0.02165
0.675 0 0
0.675 0 0.02165
0.7 0 0
0.7 0 0.02165
0.725 0 0
0.725 0 0.02165
0.75 0 0
0.75 0 0.02165
0.775 0 0
0.775 0 0.02165
0.8 0 0
0.8 0 0.02165
0.825 0 0
0.825 0 0.02165
0.85 0 0
0.85 0 0.02165
0.875 0 0
0.875 0 0.02165
0.9 0 0
0.9 0 0.02165
0.925 0 0
0.925 0 0.02165
0.95 0 0
0.95 0 0.02165
0.975 0 0
0.975 0 0.02165
1 0 0
1 0 0.02165
1 0.02165 0
1 0.02165 0.02165
0.975 0.02165 0
0.975 0.02165 0.02165
0.95 0.02165 0
0.95 0.02165 0.02165
0.925 0.02165 0
0.925 0.02165 0.02165
0.9 0.02165 0
0.9 0.02165 0.02165
0.875 0.02165 0
0.875 0.02165 0.02165
0.85 0.02165 0
0.85 0.02165 0.02165
0.825 0.02165 0
0.825 0.02165 0.02165
0.8 0.02165 0
0.8 0.02165 0.02165
0.775 0.02165 0
0.775 0.02165 0.02165
0.75 0.02165 0
0.75 0.02165 0.02165
0.725 0.02165 0
0.725 0.02165 0.02165
0.7 0.02165 0
0.7 0.02165 0.02165
0.675 0.02165 0
0.675 0.02165 0.02165
0.65 0.02165 0
0.65 0.02165 0.02165
0.625 0.02165 0
0.625 0.02165 0.02165
0.6 0.02165 0
0.6 0.02165 0.02165
0.575 0.02165 0
0.575 0.02165 0.02165
0.55 0.02165 0
0.55 0.02165 0.02165
0.525 0.02165 0
0.525 0.02165 0.02165
0.5 0.02165 0
0.5 0.02165 0.02165
0.475 0.02165 0
0.475 0.02165 0.02165
0.45 0.02165 0
0.45 0.02165 0.02165
0.425 0.02165 0
0.425 0.02165 0.02165
0.4 0.02165 0
0.4 0.02165 0.02165
0.375 0.02165 0
0.375 0.02165 0.02165
0.35 0.02165 0
0.35 0.02165 0.02165
0.325 0.02165 0
0.325 0.02165 0.02165
0.3 0.02165 0
0.3 0.02165 0.02165
0.275 0.02165 0
0.275 0.02165 0.02165
0.25 0.02165 0
0.25 0.02165 0.02165
0.225 0.02165 0
0.225 0.02165 0.02165
0.2 0.02165 0
0.2 0.02165 0.02165
0.175 0.02165 0
0.175 0.02165 0.02165
0.15 0.02165 0
0.15 0.02165 0.02165
0.125 0.02165 0
0.125 0.02165 0.02165
0.1 0.02165 0
0.1 0.02165 0.02165
0.075 0.02165 0
0.075 0.02165 0.02165
0.05 0.02165 0
0.05 0.02165 0.02165
0.025 0.02165 0
0.025 0.02165 0.02165
0 0.02165 0
0 0.02165 0.02165
0.4875 0.02165 0
0.4875 0.02165 0.02165
0.4875 0 0
0.4875 0 0.02165
0.5125 0 0
0.5125 0 0.02165
0.5125 0.02165 0
0.5125 0.02165 0.02165
0.5375 0.02165 0
0.5375 0.02165 0.02165
0.5375 0 0
0.5375 0 0.02165
0.5875 0 0
0.5875 0 0.02165
0.5875 0.02165 0
0.5875 0.02165 0.02165
0.6125 0.02165 0
0.6125 0.02165 0.02165
0.6125 0 0
0.6125 0 0.02165
0.6375 0.02165 0
0.6375 0.02165 0.02165
0.6375 0 0
0.6375 0 0.02165
0.6625 0 0
0.6625 0 0.02165
0.6625 0.02165 0
0.6625 0.02165 0.02165
0.7125 0.02165 0
0.7125 0.02165 0.02165
0.7125 0 0
0.7125 0 0.02165
0.7375 0 0
0.7375 0 0.02165
0.7375 0.02165 0
0.7375 0.02165 0.02165
0.7625 0 0
0.7625 0 0.02165
0.7625 0.02165 0
0.7625 0.02165 0.02165
0.7875 0.02165 0
0.7875 0.02165 0.02165
0.7875 0 0
0.7875 0 0.02165
0.8375 0 0
0.8375 0 0.02165
0.8375 0.02165 0
0.8375 0.02165 0.02165
0.8625 0.02165 0
0.8625 0.02165 0.02165
0.8625 0 0
0.8625 0 0.02165
0.8875 0 0
0.8875 0 0.02165
0.8875 0.02165 0
0.8875 0.02165 0.02165
0.9125 0.02165 0
0.9125 0.02165 0.02165
0.9125 0 0
0.9125 0 0.02165
0.9625 0 0
0.9625 0 0.02165
0.9625 0.02165 0
0.9625 0.02165 0.02165
0.9875 0.02165 0
0.9875 0.02165 0.02165
0.9875 0 0
0.9875 0 0.02165
0.4375 0.02165 0
0.4375 0.02165 0.02165
0.4375 0 0
0.4375 0 0.02165
0.3625 0.02165 0
0.3625 0.02165 0.02165
0.3625 0 0
0.3625 0 0.02165
0.3875 0 0
0.3875 0 0.02165
0.3875 0.02165 0
0.3875 0.02165 0.02165
0.3125 0 0
0.3125 0 0.02165
0.3125 0.02165 0
0.3125 0.02165 0.02165
0.2625 0.02165 0
0.2625 0.02165 0.02165
0.2625 0 0
0.2625 0 0.02165
0.1875 0.02165 0
0.1875 0.02165 0.02165
0.1875 0 0
0.1875 0 0.02165
0.0875 0 0
0.0875 0 0.02165
0.0875 0.02165 0
0.0875 0.02165 0.02165
0.0125 0 0
0.0125 0 0.02165
0.0125 0.02165 0
0.0125 0.02165 0.02165
0.0375 0 0
0.0375 0 0.02165
0.0375 0.02165 0
0.0375 0.02165 0.02165
0.0625 0.02165 0
0.0625 0.02165 0.02165
0.0625 0 0
0.0625 0 0.02165
0.1125 0 0
0.1125 0 0.02165
0.1125 0.02165 0
0.1125 0.02165 0.02165
0.1375 0.02165 0
0.1375 0.02165 0.02165
0.1375 0 0
0.1375 0 0.02165
0.1625 0 0
0.1625 0 0.02165
0.1625 0.02165 0
0.1625 0.02165 0.02165
0.2125 0.02165 0
0.2125 0.02165 0.02165
0.2125 0 0
0.2125 0 0.02165
0.2375 0 0
0.2375 0 0.02165
0.2375 0.02165 0
0.2375 0.02165 0.02165
0.2875 0.02165 0
0.2875 0.02165 0.02165
0.2875 0 0
0.2875 0 0.02165
0.3375 0 0
0.3375 0 0.02165
0.3375 0.02165 0
0.3375 0.02165 0.02165
0.4125 0 0
0.4125 0 0.02165
0.4125 0.02165 0
0.4125 0.02165 0.02165
0.4625 0 0
0.4625 0 0.02165
0.4625 0.02165 0
0.4625 0.02165 0.02165
0.5625 0.02165 0
0.5625 0.02165 0.02165
0.5625 0 0
0.5625 0 0.02165
0.6875 0.02165 0
0.6875 0.02165 0.02165
0.6875 0 0
0.6875 0 0.02165
0.8125 0 0
0.8125 0 0.02165
0.8125 0.02165 0
0.8125 0.02165 0.02165
0.9375 0.02165 0
0.9375 0.02165 0.02165
0.9375 0 0
0.9375 0 0.02165

CELLS 480 2400
4 178 117 177 179
4 58 104 192 193
4 210 68 94 211
4 146 17 147 253
4 208 97 67 209
4 115 180 181 183
4 190 111 189 191
4 132 31 133 237
4 213 70 71 215
4 320 76 86 321
4 200 103 61 201
4 125 164 165 167
4 110 52 53 185
4 18 144 284 285
4 146 16 17 253
4 62 63 100 203
4 91 220 221 223
4 78 79 84 227
4 89 320 321 323
4 137 27 296 297
4 288 144 145 290
4 266 161 265 267
4 106 57 107 313
4 108 55 109 191
4 221 74 75 223
4 99 317 318 319
4 48 114 178 179
4 226 78 84 227
4 122 41 123 165
4 204 64 98 205
4 262 163 261 263
4 12 150 276 277
4 135 236 237 239
4 129 232 233 235
4 165 40 41 167
4 68 69 94 211
4 253 16 17 255
4 237 30 31 239
4 298 137 297 299
4 128 35 129 303
4 152 11 153 275
4 133 31 240 241
4 124 39 125 307
4 212 70 92 213
4 147 284 285 287
4 6 156 268 269
4 122 40 41 165
4 306 127 305 307
4 280 150 151 282
4 101 204 205 207
4 277 12 13 279
4 316 99 65 317
4 321 76 77 323
4 36 126 232 233
4 28 134 298 299
4 201 62 202 203
4 229 80 81 231
4 216 92 93 218
4 112 51 113 181
4 117 47 176 177
4 118 44 45 173
4 93 92 71 213
4 205 64 65 207
4 156 7 157 269
4 130 33 131 243
4 138 24 25 293
4 309 46 47 311
4 198 60 102 199
4 313 56 57 315
4 119 308 309 311
4 268 6 269 271
4 6 268 270 271
4 276 12 277 279
4 12 276 278 279
4 252 16 253 255
4 284 18 285 287
4 16 252 254 255
4 18 284 286 287
4 248 22 249 251
4 292 24 293 295
4 22 248 250 251
4 24 292 294 295
4 236 30 237 239
4 30 236 238 239
4 232 36 233 235
4 36 232 234 235
4 164 40 165 167
4 40 164 166 167
4 172 44 173 175
4 308 46 309 311
4 44 172 174 175
4 46 308 310 311
4 180 50 181 183
4 184 52 185 187
4 50 180 182 183
4 52 184 186 187
4 312 56 313 315
4 192 58 193 195
4 56 312 314 315
4 58 192 194 195
4 205 204 64 207
4 64 204 206 207
4 213 212 70 215
4 70 212 214 215
4 221 220 74 223
4 321 320 76 323
4 74 220 222 223
4 322 76 320 323
4 229 228 80 231
4 80 228 230 231
4 16 146 252 253
4 10 152 274 275
4 134 29 135 299
4 38 124 306 307
4 85 228 229 231
4 228 80 82 229
4 149 252 253 255
4 116 47 117 309
4 99 98 65 205
4 52 110 184 185
4 156 6 7 269
4 34 128 302 303
4 136 27 137 247
4 224 87 77 225
4 60 61 102 199
4 256 156 157 258
4 188 110 111 190
4 196 104 105 198
4 8 154 258 259
4 216 93 71 217
4 198 105 197 199
4 163 1 260 261
4 50 112 180 181
4 154 9 155 259
4 22 140 248 249
4 168 122 123 170
4 316 98 99 318
4 233 36 37 235
4 114 49 115 179
4 224 86 87 226
4 64 65 98 205
4 56 106 312 313
4 240 132 133 242
4 70 71 92 213
4 141 292 293 295
4 54 108 190 191
4 145 19 288 289
4 30 132 236 237
4 109 312 313 315
4 272 154 155 274
4 318 66 96 319
4 118 45 119 173
4 148 15 149 283
4 104 59 105 193
4 26 136 246 247
4 113 184 185 187
4 110 53 111 185
4 66 67 96 319
4 143 248 249 251
4 95 212 213 215
4 72 73 90 219
4 218 72 90 219
4 220 74 88 221
4 176 116 117 178
4 138 25 139 293
4 202 62 100 203
4 193 58 59 195
4 185 52 53 187
4 74 75 88 221
4 144 19 145 285
4 285 18 19 287
4 87 86 77 321
4 208 96 97 210
4 89 88 75 221
4 120 43 121 171
4 40 122 164 165
4 76 77 86 321
4 160 3 161 263
4 150 12 13 277
4 181 50 51 183
4 105 59 196 197
4 173 44 45 175
4 126 36 37 233
4 106 56 57 313
4 107 192 193 195
4 249 22 23 251
4 104 58 59 193
4 24 138 292 293
4 121 172 173 175
4 44 118 172 173
4 296 136 137 298
4 46 116 308 309
4 170 123 169 171
4 111 53 188 189
4 140 23 141 249
4 282 151 281 283
4 126 37 127 233
4 112 50 51 181
4 242 133 241 243
4 116 46 47 309
4 20 142 290 291
4 123 41 168 169
4 157 7 256 257
4 158 5 159 267
4 127 37 304 305
4 142 21 143 291
4 32 130 242 243
4 131 33 300 301
4 293 24 25 295
4 246 139 245 247
4 290 145 289 291
4 132 30 31 237
4 302 131 301 303
4 258 157 257 259
4 139 25 244 245
4 14 148 282 283
4 150 13 151 277
4 140 22 23 249
4 42 120 170 171
4 161 3 264 265
4 144 18 19 285
4 269 6 7 271
4 151 13 280 281
4 153 276 277 279
4 159 268 269 271
4 2 160 262 263
4 155 9 272 273
4 274 155 273 275
4 164 125 166 167
4 4 158 266 267
4 40 122 41 168
4 120 42 43 171
4 125 124 164 166
4 39 124 125 166
4 38 124 39 166
4 125 39 166 167
4 172 121 174 175
4 41 122 123 168
4 42 168 169 170
4 168 123 169 170
4 169 42 170 171
4 169 43 42 171
4 46 116 47 176
4 114 48 49 179
4 121 120 172 174
4 43 120 121 174
4 42 120 43 174
4 121 43 174 175
4 180 115 182 183
4 47 116 117 176
4 48 176 177 178
4 176 117 177 178
4 177 48 178 179
4 177 49 48 179
4 184 113 186 187
4 115 114 180 182
4 49 114 115 182
4 48 114 49 182
4 115 49 182 183
4 52 110 53 188
4 108 54 55 191
4 113 112 184 186
4 51 112 113 186
4 50 112 51 186
4 113 51 186 187
4 192 107 194 195
4 53 110 111 188
4 54 188 189 190
4 188 111 189 190
4 189 54 190 191
4 189 55 54 191
4 200 102 103 202
4 58 104 59 196
4 197 60 198 199
4 107 106 192 194
4 57 106 107 194
4 56 106 57 194
4 107 57 194 195
4 61 60 102 200
4 103 201 202 203
4 59 104 105 196
4 103 102 61 199
4 60 196 197 198
4 196 105 197 198
4 197 61 60 199
4 206 204 101 207
4 97 209 210 211
4 102 103 61 200
4 101 100 63 203
4 62 200 201 202
4 201 200 103 202
4 201 63 62 203
4 209 68 210 211
4 67 66 96 208
4 204 101 100 206
4 100 101 63 206
4 63 62 100 206
4 206 101 63 207
4 214 212 95 215
4 93 217 218 219
4 96 97 67 208
4 95 94 69 211
4 68 208 209 210
4 209 208 97 210
4 209 69 68 211
4 217 72 218 219
4 71 70 92 216
4 212 95 94 214
4 94 95 69 214
4 69 68 94 214
4 214 95 69 215
4 222 220 91 223
4 87 225 226 227
4 92 93 71 216
4 91 90 73 219
4 72 216 217 218
4 217 216 93 218
4 217 73 72 219
4 225 78 226 227
4 77 76 86 224
4 220 91 90 222
4 90 91 73 222
4 73 72 90 222
4 222 91 73 223
4 230 228 85 231
4 232 129 234 235
4 86 87 77 224
4 85 84 79 227
4 78 224 225 226
4 225 224 87 226
4 225 79 78 227
4 82 80 81 229
4 83 82 81 229
4 228 85 84 230
4 84 85 79 230
4 79 78 84 230
4 230 85 79 231
4 236 135 238 239
4 129 128 232 234
4 35 128 129 234
4 34 128 35 234
4 129 35 234 235
4 24 138 25 244
4 30 132 31 240
4 130 32 33 243
4 135 134 236 238
4 29 134 135 238
4 28 134 29 238
4 135 29 238 239
4 244 138 139 246
4 136 26 27 247
4 31 132 133 240
4 32 240 241 242
4 240 133 241 242
4 241 32 242 243
4 241 33 32 243
4 248 143 250 251
4 25 138 139 244
4 26 244 245 246
4 244 139 245 246
4 245 26 246 247
4 245 27 26 247
4 252 149 254 255
4 143 142 248 250
4 21 142 143 250
4 20 142 21 250
4 143 21 250 251
4 162 1 0 260
4 6 156 7 256
4 154 8 9 259
4 149 148 252 254
4 15 148 149 254
4 14 148 15 254
4 149 15 254 255
4 2 160 3 264
4 260 162 163 262
4 160 2 3 263
4 7 156 157 256
4 8 256 257 258
4 256 157 257 258
4 257 8 258 259
4 257 9 8 259
4 264 160 161 266
4 158 4 5 267
4 1 162 163 260
4 2 260 261 262
4 260 163 261 262
4 261 2 262 263
4 261 3 2 263
4 268 159 270 271
4 3 160 161 264
4 4 264 265 266
4 264 161 265 266
4 265 4 266 267
4 265 5 4 267
4 8 154 9 272
4 152 10 11 275
4 159 158 268 270
4 5 158 159 270
4 4 158 5 270
4 159 5 270 271
4 276 153 278 279
4 9 154 155 272
4 10 272 273 274
4 272 155 273 274
4 273 10 274 275
4 273 11 10 275
4 12 150 13 280
4 148 14 15 283
4 153 152 276 278
4 11 152 153 278
4 10 152 11 278
4 153 11 278 279
4 284 147 286 287
4 13 150 151 280
4 14 280 281 282
4 280 151 281 282
4 281 14 282 283
4 15 14 281 283
4 18 144 19 288
4 142 20 21 291
4 147 146 284 286
4 17 146 147 286
4 16 146 17 286
4 147 17 286 287
4 292 141 294 295
4 19 144 145 288
4 20 288 289 290
4 288 145 289 290
4 289 20 290 291
4 21 20 289 291
4 32 130 33 300
4 26 136 27 296
4 134 28 29 299
4 141 140 292 294
4 23 140 141 294
4 22 140 23 294
4 141 23 294 295
4 36 126 37 304
4 300 130 131 302
4 128 34 35 303
4 27 136 137 296
4 28 296 297 298
4 296 137 297 298
4 297 28 298 299
4 29 28 297 299
4 304 126 127 306
4 124 38 39 307
4 33 130 131 300
4 34 300 301 302
4 300 131 301 302
4 301 34 302 303
4 35 34 301 303
4 308 119 310 311
4 37 126 127 304
4 38 304 305 306
4 304 127 305 306
4 305 38 306 307
4 39 38 305 307
4 312 109 314 315
4 119 118 308 310
4 45 118 119 310
4 44 118 45 310
4 119 45 310 311
4 65 64 98 316
4 318 317 66 319
4 109 108 312 314
4 55 108 109 314
4 54 108 55 314
4 109 55 314 315
4 322 320 89 323
4 98 99 65 316
4 97 96 67 319
4 317 66 316 318
4 317 316 99 318
4 67 66 317 319
4 320 89 88 322
4 88 89 75 322
4 75 74 88 322
4 322 89 75 323

CELL_TYPES 480
10
10
10
10
10
10
10
10
10
10
10
10
10
10
10
10
10
10
10
10
10
10
10
10
10
10
10
10
10
10
10
10
10
10
10
10
10
10
10
10
10
10
10
10
10
10
10
10
10
10
10
10
10
10
10
10
10
10
10
10
10
10
10
10
10
10
10
10
10
10
10
10
10
10
10
10
10
10
10
10
10
10
10
10
10
10
10
10
10
10
10
10
10
10
10
10
10
10
10
10
10
10
10
10
10
10
10
10
10
10
10
10
10
10
10
10
10
10
10
10
10
10
10
10
10
10
10
10
10
10
10
10
10
10
10
10
10
10
10
10
10
10
10
10
10
10
10
10
10
10
10
10
10
10
10
10
10
10
10
10
10
10
10
10
10
10
10
10
10
10
10
10
10
10
10
10
10
10
10
10
10
10
10
10
10
10
10
10
10
10
10
10
10
10
10
10
10
10
10
10
10
10
10
10
10
10
10
10
10
10
10
10
10
10
10
10
10
10
10
10
10
10
10
10
10
10
10
10
10
10
10
10
10
10
10
10
10
10
10
10
10
10
10
10
10
10
10
10
10
10
10
10
10
10
10
10
10
10
10
10
10
10
10
10
10
10
10
10
10
10
10
10
10
10
10
10
10
10
10
10
10
10
10
10
10
10
10
10
10
10
10
10
10
10
10
10
10
10
10
10
10
10
10
10
10
10
10
10
10
10
10
10
10
10
10
10
10
10
10
10
10
10
10
10
10
10
10
10
10
10
10
10
10
10
10
10
10
10
10
10
10
10
10
10
10
10
10
10
10
10
10
10
10
10
10
10
10
10
10
10
10
10
10
10
10
10
10
10
10
10
10
10
10
10
10
10
10
10
10
10
10
10
10
10
10
10
10
10
10
10
10
10
10
10
10
10
10
10
10
10
10
10
10
10
10
10
10
10
10
10
10
10
10
10
10
10
10
10
10
10
10
10
10
10
10
10
10
10
10
10
10
10
10
10
10
10
10
10
10
10
10
10
10
10
10
10
10
10
10
10
10
10
10
10
10
10
10
10
10
10
10
10
10
10
10
10
10
10
10
10
10
10
10
10
10
10
10
10
10
10

CELL_DATA 480
SCALARS cell_id int 1
LOOKUP_TABLE default
0
1
2
3
4
5
6
7
8
9
10
11
12
13
14
15
16
17
18
19
20
21
22
23
24
25
26
27
28
29
30
31
32
33
34
35
36
37
38
39
40
41
42
43
44
45
46
47
48
49
50
51
52
53
54
55
56
57
58
59
60
61
62
63
64
65
66
67
68
69
70
71
72
73
74
75
76
77
78
79
80
81
82
83
84
85
86
87
88
89
90
91
92
93
94
95
96
97
98
99
100
101
102
103
104
105
106
107
108
109
110
111
112
113
114
115
116
117
118
119
120
121
122
123
124
125
126
127
128
129
130
131
132
133
134
135
136
137
138
139
140
141
142
143
144
145
146
147
148
149
150
151
152
153
154
155
156
157
158
159
160
161
162
163
164
165
166
167
168
169
170
171
172
173
174
175
176
177
178
179
180
181
182
183
184
185
186
187
188
189
190
191
192
193
194
195
196
197
198
199
200
201
202
203
204
205
206
207
208
209
210
211
212
213
214
215
216
217
218
219
220
221
222
223
224
225
226
227
228
229
230
231
232
233
234
235
236
237
238
239
240
241
242
243
244
245
246
247
248
249
250
251
252
253
254
255
256
257
258
259
260
261
262
263
264
265
266
267
268
269
270
271
272
273
274
275
276
277
278
279
280
281
282
283
284
285
286
287
288
289
290
291
292
293
294
295
296
297
298
299
300
301
302
303
304
305
306
307
308
309
310
311
312
313
314
315
316
317
318
319
320
321
322
323
324
325
326
327
328
329
330
331
332
333
334
335
336
337
338
339
340
341
342
343
344
345
346
347
348
349
350
351
352
353
354
355
356
357
358
359
360
361
362
363
364
365
366
367
368
369
370
371
372
373
374
375
376
377
378
379
380
381
382
383
384
385
386
387
388
389
390
391
392
393
394
395
396
397
398
399
400
401
402
403
404
405
406
407
408
409
410
411
412
413
414
415
416
417
418
419
420
421
422
423
424
425
426
427
428
429
430
431
432
433
434
435
436
437
438
439
440
441
442
443
444
445
446
447
448
449
450
451
452
453
454
455
456
457
458
459
460
461
462
463
464
465
466
467
468
469
470
471
472
473
474
475
476
477
478
479
SCALARS boundary_face_count int 1
LOOKUP_TABLE default
2
2
2
2
2
2
2
2
2
2
2
2
0
2
0
0
2
0
2
2
2
2
2
2
2
2
2
2
2
2
2
2
2
2
2
0
2
2
2
2
2
2
2
2
2
2
0
2
2
2
2
2
2
2
2
0
2
2
2
2
0
2
2
2
2
0
2
2
2
2
0
2
0
2
0
0
2
2
0
0
2
2
0
2
0
2
0
2
0
0
2
2
0
0
2
2
0
0
2
2
0
2
0
2
0
0
2
2
0
2
2
2
2
2
2
2
2
2
2
2
0
2
2
2
0
2
2
2
2
2
2
2
2
2
2
2
2
2
2
2
0
2
2
0
2
2
2
2
2
2
2
2
2
2
2
2
2
0
2
2
0
2
2
2
2
2
2
2
0
2
2
2
2
2
2
2
0
2
0
2
2
2
0
0
2
2
0
2
2
2
2
2
2
2
2
2
2
0
2
0
2
2
2
2
2
2
2
2
2
2
2
0
2
2
2
2
2
0
2
2
0
2
2
2
2
2
2
2
0
2
2
0
2
0
2
2
0
0
2
0
0
2
2
0
2
0
2
2
0
0
2
0
0
2
0
2
0
2
2
2
0
2
0
2
2
0
0
2
0
0
2
2
2
0
2
0
2
2
2
2
0
2
2
0
2
0
2
0
2
2
0
2
0
2
2
0
2
2
0
2
0
2
2
0
2
0
2
2
0
2
2
0
2
0
2
2
0
2
0
2
2
0
2
2
0
0
0
2
2
0
2
1
3
2
0
2
2
0
2
0
2
2
2
2
0
2
0
2
2
2
0
0
2
0
0
2
0
0
2
0
0
2
0
2
0
2
2
3
2
0
2
0
2
2
2
2
0
0
2
0
0
2
2
0
1
2
0
0
2
0
0
2
0
0
2
2
0
2
0
2
2
0
0
2
0
0
2
2
0
2
0
2
2
0
0
2
0
0
2
2
0
2
0
2
2
0
0
2
0
0
2
2
2
0
2
0
2
2
2
2
0
0
2
0
0
2
2
0
0
2
0
0
2
0
0
2
0
0
2
0
2
0
2
2
2
0
2
0
2
2
0
0
2
2
0
2
2
0
2
2
SCALARS neighbor_count int 1
LOOKUP_TABLE default
2
2
2
2
2
2
2
2
2
2
2
2
4
2
4
4
2
4
2
2
2
2
2
2
2
2
2
2
2
2
2
2
2
2
2
4
2
2
2
2
2
2
2
2
2
2
4
2
2
2
2
2
2
2
2
4
2
2
2
2
4
2
2
2
2
4
2
2
2
2
4
2
4
2
4
4
2
2
4
4
2
2
4
2
4
2
4
2
4
4
2
2
4
4
2
2
4
4
2
2
4
2
4
2
4
4
2
2
4
2
2
2
2
2
2
2
2
2
2
2
4
2
2
2
4
2
2
2
2
2
2
2
2
2
2
2
2
2
2
2
4
2
2
4
2
2
2
2
2
2
2
2
2
2
2
2
2
4
2
2
4
2
2
2
2
2
2
2
4
2
2
2
2
2
2
2
4
2
4
2
2
2
4
4
2
2
4
2
2
2
2
2
2
2
2
2
2
4
2
4
2
2
2
2
2
2
2
2
2
2
2
4
2
2
2
2
2
4
2
2
4
2
2
2
2
2
2
2
4
2
2
4
2
4
2
2
4
4
2
4
4
2
2
4
2
4
2
2
4
4
2
4
4
2
4
2
4
2
2
2
4
2
4
2
2
4
4
2
4
4
2
2
2
4
2
4
2
2
2
2
4
2
2
4
2
4
2
4
2
2
4
2
4
2
2
4
2
2
4
2
4
2
2
4
2
4
2
2
4
2
2
4
2
4
2
2
4
2
4
2
2
4
2
2
4
4
4
2
2
4
2
3
1
2
4
2
2
4
2
4
2
2
2
2
4
2
4
2
2
2
4
4
2
4
4
2
4
4
2
4
4
2
4
2
4
2
2
1
2
4
2
4
2
2
2
2
4
4
2
4
4
2
2
4
3
2
4
4
2
4
4
2
4
4
2
2
4
2
4
2
2
4
4
2
4
4
2
2
4
2
4
2
2
4
4
2
4
4
2
2
4
2
4
2
2
4
4
2
4
4
2
2
2
4
2
4
2
2
2
2
4
4
2
4
4
2
2
4
4
2
4
4
2
4
4
2
4
4
2
4
2
4
2
2
2
4
2
4
2
2
4
4
2
2
4
2
2
4
2
2

POINT_DATA 324
SCALARS point_id int 1
LOOKUP_TABLE default
0
1
2
3
4
5
6
7
8
9
10
11
12
13
14
15
16
17
18
19
20
21
22
23
24
25
26
27
28
29
30
31
32
33
34
35
36
37
38
39
40
41
42
43
44
45
46
47
48
49
50
51
52
53
54
55
56
57
58
59
60
61
62
63
64
65
66
67
68
69
70
71
72
73
74
75
76
77
78
79
80
81
82
83
84
85
86
87
88
89
90
91
92
93
94
95
96
97
98
99
100
101
102
103
104
105
106
107
108
109
110
111
112
113
114
115
116
117
118
119
120
121
122
123
124
125
126
127
128
129
130
131
132
133
134
135
136
137
138
139
140
141
142
143
144
145
146
147
148
149
150
151
152
153
154
155
156
157
158
159
160
161
162
163
164
165
166
167
168
169
170
171
172
173
174
175
176
177
178
179
180
181
182
183
184
185
186
187
188
189
190
191
192
193
194
195
196
197
198
199
200
201
202
203
204
205
206
207
208
209
210
211
212
213
214
215
216
217
218
219
220
221
222
223
224
225
226
227
228
229
230
231
232
233
234
235
236
237
238
239
240
241
242
243
244
245
246
247
248
249
250
251
252
253
254
255
256
257
258
259
260
261
262
263
264
265
266
267
268
269
270
271
272
273
274
275
276
277
278
279
280
281
282
283
284
285
286
287
288
289
290
291
292
293
294
295
296
297
298
299
300
301
302
303
304
305
306
307
308
309
310
311
312
313
314
315
316
317
318
319
320
321
322
323
SCALARS is_boundary_point int 1
LOOKUP_TABLE default
1
1
1
1
1
1
1
1
1
1
1
1
1
1
1
1
1
1
1
1
1
1
1
1
1
1
1
1
1
1
1
1
1
1
1
1
1
1
1
1
1
1
1
1
1
1
1
1
1
1
1
1
1
1
1
1
1
1
1
1
1
1
1
1
1
1
1
1
1
1
1
1
1
1
1
1
1
1
1
1
1
1
1
1
1
1
1
1
1
1
1
1
1
1
1
1
1
1
1
1
1
1
1
1
1
1
1
1
1
1
1
1
1
1
1
1
1
1
1
1
1
1
1
1
1
1
1
1
1
1
1
1
1
1
1
1
1
1
1
1
1
1
1
1
1
1
1
1
1
1
1
1
1
1
1
1
1
1
1
1
1
1
1
1
1
1
1
1
1
1
1
1
1
1
1
1
1
1
1
1
1
1
1
1
1
1
1
1
1
1
1
1
1
1
1
1
1
1
1
1
1
1
1
1
1
1
1
1
1
1
1
1
1
1
1
1
1
1
1
1
1
1
1
1
1
1
1
1
1
1
1
1
1
1
1
1
1
1
1
1
1
1
1
1
1
1
1
1
1
1
1
1
1
1
1
1
1
1
1
1
1
1
1
1
1
1
1
1
1
1
1
1
1
1
1
1
1
1
1
1
1
1
1
1
1
1
1
1
1
1
1
1
1
1
1
1
1
1
1
1
1
1
1
1
1
1
1
1
1
1
1
1
1
1
1
1
1
1
1
1
1
1
1
1

CELL_DATA 480
SCALARS face_ids int 4
LOOKUP_TABLE default
490 1096 419 527 
201 551 698 743 
515 498 1073 594 
534 568 482 604 
456 481 721 999 
1177 537 645 401 
464 503 208 1160 
543 564 565 639 
576 640 587 847 
1009 463 603 606 
472 322 520 730 
324 207 817 625 
943 260 653 400 
1041 501 683 390 
745 593 568 476 
963 422 524 455 
857 602 1222 468 
451 563 517 442 
1109 509 154 562 
592 610 627 764 
789 523 395 474 
780 266 432 379 
661 410 406 711 
439 436 557 688 
614 623 675 528 
545 427 668 467 
363 384 596 382 
585 378 460 517 
508 957 636 802 
526 372 392 370 
369 1129 380 766 
648 849 812 368 
359 1091 672 301 
1058 677 385 487 
269 755 691 758 
473 705 594 700 
476 547 703 412 
186 706 466 624 
793 101 658 709 
556 228 105 569 
469 714 909 969 
791 693 424 719 
220 408 1075 643 
616 729 710 732 
588 580 790 786 
119 740 647 746 
306 1012 957 269 
664 756 1047 805 
532 845 605 754 
686 759 763 192 
1094 521 768 615 
771 454 781 1165 
626 782 785 288 
775 734 796 736 
236 941 294 393 
514 246 792 960 
794 803 536 738 
689 555 492 495 
731 402 296 737 
809 173 747 244 
1206 814 815 450 
267 426 116 934 
820 822 571 662 
479 355 663 298 
617 1128 798 833 
283 434 1125 356 
829 873 699 354 
628 1016 348 346 
345 825 465 843 
316 773 1161 189 
647 723 341 340 
425 723 554 907 
812 337 652 521 
334 337 332 331 
323 713 264 547 
683 165 786 497 
219 713 601 321 
622 165 548 641 
682 583 310 106 
319 650 313 599 
180 583 312 748 
1176 650 975 304 
303 540 301 706 
779 540 855 327 
796 611 487 297 
295 611 300 292 
153 531 625 755 
1044 531 761 197 
839 1036 279 586 
277 477 189 873 
275 1036 272 347 
366 477 414 268 
265 956 401 888 
797 263 112 214 
931 956 289 270 
258 263 255 405 
1263 431 254 825 
698 573 286 253 
251 431 250 245 
242 573 826 591 
372 192 822 637 
1079 637 238 659 
729 1093 640 235 
234 235 175 230 
361 468 623 371 
463 562 782 227 
226 371 727 221 
621 717 1105 227 
218 215 803 211 
195 211 209 433 
609 593 323 202 
102 447 200 198 
795 194 1239 191 
655 549 374 1138 
351 560 223 215 
470 218 589 365 
104 819 500 264 
767 190 518 816 
271 976 185 519 
590 260 797 181 
696 740 355 196 
177 179 248 416 
386 174 367 666 
494 172 171 398 
1261 776 346 164 
502 584 404 163 
1213 360 161 649 
160 158 157 156 
629 720 712 1229 
285 252 538 151 
376 150 1106 148 
162 261 147 134 
145 330 265 143 
529 678 1148 741 
512 326 682 144 
282 139 804 1078 
335 138 318 137 
176 297 597 679 
411 131 130 595 
552 129 213 413 
317 820 370 519 
233 724 1263 128 
127 787 1212 142 
126 576 732 934 
991 125 409 313 
114 206 840 155 
122 117 133 558 
582 339 303 900 
256 305 107 254 
511 471 449 115 
113 111 902 1266 
978 815 280 423 
350 396 328 445 
1141 362 774 103 
646 100 770 885 
832 572 132 112 
834 653 541 836 
307 837 1266 842 
844 846 851 310 
852 853 856 1093 
407 860 924 222 
866 867 1097 924 
872 361 970 875 
879 742 673 880 
1255 1125 881 1151 
437 960 883 524 
1154 253 884 889 
400 214 216 1179 
890 614 875 546 
417 284 892 894 
896 497 674 897 
898 901 903 231 
904 1194 120 642 
905 1166 908 546 
578 911 293 912 
575 1012 153 690 
913 626 606 231 
224 915 349 982 
618 849 149 1094 
918 888 311 921 
923 1223 925 1257 
450 586 928 929 
927 734 930 176 
933 724 410 345 
799 806 877 286 
397 106 935 938 
940 551 362 1154 
942 434 319 944 
1060 744 936 279 
1249 814 839 948 
1029 949 951 952 
953 718 277 1123 
954 955 109 182 
958 932 946 1049 
959 965 966 1099 
968 871 868 352 
971 930 972 974 
977 330 402 918 
418 136 869 979 
981 718 190 829 
821 841 862 983 
984 985 987 728 
715 247 660 420 
988 257 990 108 
994 684 995 448 
996 997 772 992 
510 998 1001 945 
1002 1038 800 1004 
356 599 973 381 
1006 1008 353 1010 
1015 701 635 1017 
1083 339 564 186 
394 823 1020 383 
1021 1023 1026 1170 
651 870 1030 443 
1031 1032 1034 895 
1035 149 1037 1135 
1039 326 965 397 
232 281 1043 488 
530 1045 848 1046 
1050 501 284 896 
196 340 217 1227 
1052 1053 1054 788 
1055 685 1057 652 
1059 1061 1062 341 
707 539 726 1064 
831 937 722 783 
1065 457 1066 1067 
1068 207 197 716 
835 140 178 278 
306 1069 415 1070 
882 281 911 1072 
850 1074 1068 1005 
220 863 357 1074 
1076 462 922 863 
357 961 716 1077 
1080 744 347 1084 
508 1070 984 282 
358 962 620 522 
987 804 522 954 
620 1040 109 1043 
1085 993 1040 1072 
981 1086 1087 1089 
947 384 131 1090 
1018 1092 1080 1095 
578 166 1007 1092 
882 893 1082 166 
1007 1011 1084 1098 
708 537 270 1100 
767 1089 809 879 
906 1071 986 1102 
747 673 1102 490 
986 1103 419 596 
702 1104 1103 1090 
212 572 405 229 
123 1107 708 239 
411 634 1108 1107 
947 329 480 634 
1108 950 1100 1110 
943 632 513 336 
1111 206 436 1112 
1113 612 212 1115 
731 1003 1116 612 
977 290 1117 1003 
1116 694 229 828 
570 806 591 1119 
834 336 958 1213 
1033 704 1121 505 
946 161 505 464 
1121 1122 208 840 
784 886 1122 1112 
1124 1120 1126 314 
940 542 1127 1131 
159 1132 1106 1016 
1134 204 570 287 
661 1114 1056 204 
933 1137 299 1114 
1056 475 1119 769 
1261 1139 458 566 
830 550 1140 792 
1141 1131 923 160 
670 1143 644 164 
210 656 159 168 
925 157 168 376 
1144 338 1132 776 
1146 659 444 759 
544 1147 1150 1152 
670 1124 458 472 
1153 241 240 455 
499 1156 514 1208 
322 1208 830 1126 
600 1157 246 422 
387 1158 1152 498 
307 1048 1159 1162 
574 1146 183 697 
1153 697 1063 141 
963 344 1063 967 
141 444 1167 110 
751 230 665 853 
1168 533 146 187 
1028 904 1159 456 
1174 489 1172 700 
1173 320 387 1178 
481 1178 544 120 
980 1180 1158 705 
1182 818 187 867 
126 1183 1051 1184 
1185 751 667 483 
1174 483 1186 1187 
473 446 1186 1042 
1187 665 1175 810 
1188 221 506 602 
1189 854 1013 1014 
267 689 1051 285 
607 920 1019 222 
308 926 1182 1215 
252 1215 1168 492 
1190 459 818 860 
389 910 1014 378 
913 1169 613 676 
1118 1188 917 1025 
607 1025 874 1164 
407 1238 874 1191 
1164 506 259 1193 
630 433 692 560 
1195 677 292 342 
898 552 613 494 
276 273 1196 442 
485 1197 389 291 
172 291 1189 213 
1198 1199 910 563 
1142 365 631 794 
1202 1203 1205 631 
1207 630 553 1209 
276 1209 1214 1216 
451 687 1214 1217 
1216 692 1218 430 
1219 1091 327 491 
753 1220 1195 1224 
556 654 1225 1220 
827 891 1192 654 
1225 1226 342 428 
283 964 1228 1230 
1083 429 1231 440 
1232 998 1128 1233 
1234 1235 1219 1236 
795 1237 1155 1235 
1240 887 638 1237 
1155 1241 491 859 
1149 309 733 1242 
496 100 174 1243 
543 440 791 127 
824 1244 453 188 
424 1212 188 418 
453 633 869 1001 
375 1000 633 1233 
1245 846 748 1247 
1255 1230 651 1149 
1248 333 1250 1204 
1030 733 1204 1006 
1250 1251 353 770 
1253 1254 1251 1243 
1278 819 321 807 
399 671 1245 377 
996 262 535 671 
1256 1211 681 262 
535 1258 1247 205 
1181 1252 169 1246 
696 865 1259 249 
765 720 678 608 
1260 184 1278 1130 
350 1262 199 184 
1264 1265 1267 1262 
199 1133 807 680 
1268 752 1270 1271 
581 811 1272 1273 
1268 539 915 1274 
479 249 715 502 
441 1275 1276 1171 
660 404 1171 1021 
1276 695 1026 712 
939 435 695 608 
735 1277 1279 801 
1136 140 257 391 
1280 1252 162 581 
507 1281 438 858 
147 1272 858 369 
438 525 380 726 
1101 99 525 1274 
98 1061 907 486 
224 1271 530 735 
97 95 94 93 
848 1279 93 780 
94 118 432 178 
92 91 118 391 
765 90 478 89 
225 447 714 88 
87 86 98 989 
988 85 84 86 
1136 813 83 85 
84 82 486 81 
193 685 331 80 
529 89 831 511 
1024 516 79 78 
722 449 78 1065 
79 77 1066 200 
919 76 77 88 
618 75 1201 74 
1264 1032 396 1022 
388 750 193 73 
469 876 72 750 
225 561 71 876 
72 70 80 69 
68 580 641 67 
1035 74 1052 532 
757 1145 65 808 
1054 605 808 968 
65 916 868 1034 
64 1022 725 916 
1050 63 1221 62 
1256 841 997 61 
59 58 68 57 
534 56 760 58 
745 274 55 56 
760 54 67 619 
53 125 304 52 
417 62 122 789 
51 878 343 1163 
133 395 1163 1015 
343 421 635 862 
657 61 66 421 
1232 121 50 49 
496 48 47 46 
1240 941 194 45 
577 44 53 43 
959 864 778 44 
1039 42 777 864 
778 302 52 559 
927 1200 364 60 
41 40 899 39 
827 179 228 762 
386 46 592 1029 
38 37 325 36 
627 951 36 793 
325 35 658 294 
34 45 152 35 
33 32 31 30 
1076 549 408 167 
617 49 1002 41 
29 567 28 1210 
800 899 1210 394 
28 739 1020 248 
504 762 27 739 
26 773 268 914 
971 60 994 33 
25 403 493 838 
995 31 838 664 
493 861 1047 374 
96 167 24 861 
23 305 245 1269 
315 170 26 598 
978 135 22 170 
1206 21 20 135 
22 19 914 203 
317 749 18 17 
243 467 111 16 
669 484 23 15 
439 124 14 484 
1111 13 373 124 
14 1081 1269 237 
1088 1105 12 509 
271 335 18 771 
1028 11 10 842 
461 243 9 8 
454 9 545 318 
452 837 7 16 
6 1088 5 4 
905 4 3 2 
890 1 3 579 
2 12 0 1027 
