# vtk DataFile Version 3.0
DG Mesh Data Export
ASCII
DATASET UNSTRUCTURED_GRID
POINTS 132 double
0 0 0
0 0 0.054125
0.0625 0 0
0.0625 0 0.054125
0.125 0 0
0.125 0 0.054125
0.1875 0 0
0.1875 0 0.054125
0.25 0 0
0.25 0 0.054125
0.3125 0 0
0.3125 0 0.054125
0.375 0 0
0.375 0 0.054125
0.4375 0 0
0.4375 0 0.054125
0.5 0 0
0.5 0 0.054125
0.5625 0 0
0.5625 0 0.054125
0.625 0 0
0.625 0 0.054125
0.6875 0 0
0.6875 0 0.054125
0.75 0 0
0.75 0 0.054125
0.8125 0 0
0.8125 0 0.054125
0.875 0 0
0.875 0 0.054125
0.9375 0 0
0.9375 0 0.054125
1 0 0
1 0 0.054125
1 0.054125 0
1 0.054125 0.054125
0.9375 0.054125 0
0.9375 0.054125 0.054125
0.875 0.054125 0
0.875 0.054125 0.054125
0.8125 0.054125 0
0.8125 0.054125 0.054125
0.75 0.054125 0
0.75 0.054125 0.054125
0.6875 0.054125 0
0.6875 0.054125 0.054125
0.625 0.054125 0
0.625 0.054125 0.054125
0.5625 0.054125 0
0.5625 0.054125 0.054125
0.5 0.054125 0
0.5 0.054125 0.054125
0.4375 0.054125 0
0.4375 0.054125 0.054125
0.375 0.054125 0
0.375 0.054125 0.054125
0.3125 0.054125 0
0.3125 0.054125 0.054125
0.25 0.054125 0
0.25 0.054125 0.054125
0.1875 0.054125 0
0.1875 0.054125 0.054125
0.125 0.054125 0
0.125 0.054125 0.054125
0.0625 0.054125 0
0.0625 0.054125 0.054125
0 0.054125 0
0 0.054125 0.054125
0.03125 0 0
0.03125 0 0.054125
0.03125 0.054125 0
0.03125 0.054125 0.054125
0.09375 0.054125 0
0.09375 0.054125 0.054125
0.09375 0 0
0.09375 0 0.054125
0.15625 0.054125 0
0.15625 0.054125 0.054125
0.15625 0 0
0.15625 0 0.054125
0.21875 0 0
0.21875 0 0.054125
0.21875 0.054125 0
0.21875 0.054125 0.054125
0.28125 0.054125 0
0.28125 0.054125 0.054125
0.28125 0 0
0.28125 0 0.054125
0.34375 0.054125 0
0.34375 0.054125 0.054125
0.34375 0 0
0.34375 0 0.054125
0.40625 0 0
0.40625 0 0.054125
0.40625 0.054125 0
0.40625 0.054125 0.054125
0.46875 0.054125 0
0.46875 0.054125 0.054125
0.46875 0 0
0.46875 0 0.054125
0.53125 0 0
0.53125 0 0.054125
0.53125 0.054125 0
0.53125 0.054125 0.054125
0.59375 0 0
0.59375 0 0.054125
0.59375 0.054125 0
0.59375 0.054125 0.054125
0.65625 0.054125 0
0.65625 0.054125 0.054125
0.65625 0 0
0.65625 0 0.054125
0.71875 0 0
0.71875 0 0.054125
0.71875 0.054125 0
0.71875 0.054125 0.054125
0.78125 0 0
0.78125 0 0.054125
0.78125 0.054125 0
0.78125 0.054125 0.054125
0.84375 0.054125 0
0.84375 0.054125 0.054125
0.84375 0 0
0.84375 0 0.054125
0.90625 0 0
0.90625 0 0.054125
0.90625 0.054125 0
0.90625 0.054125 0.054125
0.96875 0 0
0.96875 0 0.054125
0.96875 0.054125 0
0.96875 0.054125 0.054125

CELLS 192 960
4 61 7 80 81
4 20 46 106 107
4 89 12 13 91
4 73 4 5 75
4 16 50 96 97
4 114 45 113 115
4 6 60 76 77
4 106 49 105 107
4 45 23 112 113
4 44 23 45 109
4 18 48 102 103
4 52 15 53 95
4 130 37 129 131
4 47 108 109 111
4 130 32 34 131
4 12 54 88 89
4 121 28 29 123
4 92 54 55 94
4 64 3 65 71
4 64 2 3 71
4 49 19 104 105
4 38 29 39 121
4 38 28 29 121
4 72 4 73 75
4 76 6 77 79
4 4 72 74 75
4 6 76 78 79
4 84 10 85 87
4 88 12 89 91
4 10 84 86 87
4 12 88 90 91
4 96 16 97 99
4 16 96 98 99
4 108 22 109 111
4 22 108 110 111
4 120 28 121 123
4 28 120 122 123
4 53 96 97 99
4 50 16 17 97
4 60 7 61 77
4 97 16 17 99
4 48 19 49 103
4 50 17 51 97
4 30 36 31 128
4 41 120 121 123
4 124 38 39 126
4 46 21 47 107
4 112 44 45 114
4 58 9 59 83
4 60 6 7 77
4 80 60 61 82
4 34 32 33 131
4 22 44 108 109
4 109 22 23 111
4 126 39 125 127
4 54 12 13 89
4 40 27 41 119
4 37 31 128 129
4 42 25 43 115
4 36 30 31 127
4 56 11 57 85
4 67 1 68 69
4 30 36 126 127
4 39 29 124 125
4 62 5 63 73
4 24 42 114 115
4 100 50 51 102
4 26 40 118 119
4 94 55 93 95
4 4 62 72 73
4 28 38 120 121
4 85 10 11 87
4 10 56 84 85
4 102 51 101 103
4 14 52 94 95
4 43 25 116 117
4 118 43 117 119
4 54 13 55 89
4 44 22 23 109
4 62 4 5 73
4 51 17 100 101
4 77 6 7 79
4 68 66 67 70
4 55 13 92 93
4 59 84 85 87
4 57 88 89 91
4 63 76 77 79
4 56 10 11 85
4 82 61 81 83
4 8 58 82 83
4 65 72 73 75
4 66 1 0 68
4 2 64 70 71
4 70 67 69 71
4 72 65 74 75
4 1 66 67 68
4 2 68 69 70
4 68 67 69 70
4 69 2 70 71
4 69 3 2 71
4 76 63 78 79
4 65 64 72 74
4 3 64 65 74
4 2 64 3 74
4 65 3 74 75
4 6 60 7 80
4 58 8 9 83
4 63 62 76 78
4 5 62 63 78
4 4 62 5 78
4 63 5 78 79
4 84 59 86 87
4 7 60 61 80
4 8 80 81 82
4 80 61 81 82
4 81 8 82 83
4 81 9 8 83
4 88 57 90 91
4 59 58 84 86
4 9 58 59 86
4 8 58 9 86
4 59 9 86 87
4 12 54 13 92
4 52 14 15 95
4 57 56 88 90
4 11 56 57 90
4 10 56 11 90
4 57 11 90 91
4 96 53 98 99
4 13 54 55 92
4 14 92 93 94
4 92 55 93 94
4 93 14 94 95
4 93 15 14 95
4 18 48 19 104
4 16 50 17 100
4 48 18 19 103
4 53 52 96 98
4 15 52 53 98
4 14 52 15 98
4 53 15 98 99
4 104 48 49 106
4 46 20 21 107
4 17 50 51 100
4 18 100 101 102
4 100 51 101 102
4 101 18 102 103
4 101 19 18 103
4 108 47 110 111
4 19 48 49 104
4 20 104 105 106
4 104 49 105 106
4 105 20 106 107
4 105 21 20 107
4 24 42 25 116
4 22 44 23 112
4 42 24 25 115
4 47 46 108 110
4 21 46 47 110
4 20 46 21 110
4 47 21 110 111
4 116 42 43 118
4 40 26 27 119
4 23 44 45 112
4 24 112 113 114
4 112 45 113 114
4 113 24 114 115
4 113 25 24 115
4 120 41 122 123
4 25 42 43 116
4 26 116 117 118
4 116 43 117 118
4 117 26 118 119
4 117 27 26 119
4 128 36 37 130
4 28 38 29 124
4 125 30 126 127
4 41 40 120 122
4 27 40 41 122
4 26 40 27 122
4 41 27 122 123
4 35 34 33 131
4 29 38 39 124
4 36 31 37 127
4 30 124 125 126
4 124 39 125 126
4 125 31 30 127
4 31 36 37 128
4 32 128 129 130
4 128 37 129 130
4 129 32 130 131
4 129 33 32 131

CELL_TYPES 192
10
10
10
10
10
10
10
10
10
10
10
10
10
10
10
10
10
10
10
10
10
10
10
10
10
10
10
10
10
10
10
10
10
10
10
10
10
10
10
10
10
10
10
10
10
10
10
10
10
10
10
10
10
10
10
10
10
10
10
10
10
10
10
10
10
10
10
10
10
10
10
10
10
10
10
10
10
10
10
10
10
10
10
10
10
10
10
10
10
10
10
10
10
10
10
10
10
10
10
10
10
10
10
10
10
10
10
10
10
10
10
10
10
10
10
10
10
10
10
10
10
10
10
10
10
10
10
10
10
10
10
10
10
10
10
10
10
10
10
10
10
10
10
10
10
10
10
10
10
10
10
10
10
10
10
10
10
10
10
10
10
10
10
10
10
10
10
10
10
10
10
10
10
10
10
10
10
10
10
10
10
10
10
10
10
10
10
10
10
10
10
10

CELL_DATA 192
SCALARS cell_id int 1
LOOKUP_TABLE default
0
1
2
3
4
5
6
7
8
9
10
11
12
13
14
15
16
17
18
19
20
21
22
23
24
25
26
27
28
29
30
31
32
33
34
35
36
37
38
39
40
41
42
43
44
45
46
47
48
49
50
51
52
53
54
55
56
57
58
59
60
61
62
63
64
65
66
67
68
69
70
71
72
73
74
75
76
77
78
79
80
81
82
83
84
85
86
87
88
89
90
91
92
93
94
95
96
97
98
99
100
101
102
103
104
105
106
107
108
109
110
111
112
113
114
115
116
117
118
119
120
121
122
123
124
125
126
127
128
129
130
131
132
133
134
135
136
137
138
139
140
141
142
143
144
145
146
147
148
149
150
151
152
153
154
155
156
157
158
159
160
161
162
163
164
165
166
167
168
169
170
171
172
173
174
175
176
177
178
179
180
181
182
183
184
185
186
187
188
189
190
191
SCALARS boundary_face_count int 1
LOOKUP_TABLE default
2
2
2
2
2
2
2
2
2
2
2
2
2
2
2
2
2
2
2
0
2
2
0
0
0
2
2
0
0
2
2
0
2
0
2
0
2
2
0
2
2
2
2
2
2
2
2
2
2
0
2
1
2
2
2
0
2
2
2
0
2
2
2
2
2
2
2
2
2
2
2
2
2
2
2
2
2
2
0
0
2
2
2
2
2
2
2
0
2
2
2
3
2
2
0
1
2
0
0
2
0
2
0
2
2
2
0
2
0
2
2
0
0
2
0
0
2
0
2
0
2
2
2
0
2
0
2
2
0
0
2
0
0
2
2
2
0
2
0
2
2
2
0
0
2
0
0
2
0
0
2
0
0
2
2
2
0
2
0
2
2
2
0
0
2
0
0
2
0
0
2
0
0
2
2
2
0
2
0
2
2
3
0
2
2
0
2
0
2
0
0
2
SCALARS neighbor_count int 1
LOOKUP_TABLE default
2
2
2
2
2
2
2
2
2
2
2
2
2
2
2
2
2
2
2
4
2
2
4
4
4
2
2
4
4
2
2
4
2
4
2
4
2
2
4
2
2
2
2
2
2
2
2
2
2
4
2
3
2
2
2
4
2
2
2
4
2
2
2
2
2
2
2
2
2
2
2
2
2
2
2
2
2
2
4
4
2
2
2
2
2
2
2
4
2
2
2
1
2
2
4
3
2
4
4
2
4
2
4
2
2
2
4
2
4
2
2
4
4
2
4
4
2
4
2
4
2
2
2
4
2
4
2
2
4
4
2
4
4
2
2
2
4
2
4
2
2
2
4
4
2
4
4
2
4
4
2
4
4
2
2
2
4
2
4
2
2
2
4
4
2
4
4
2
4
4
2
4
4
2
2
2
4
2
4
2
2
1
4
2
2
4
2
4
2
4
4
2

POINT_DATA 132
SCALARS point_id int 1
LOOKUP_TABLE default
0
1
2
3
4
5
6
7
8
9
10
11
12
13
14
15
16
17
18
19
20
21
22
23
24
25
26
27
28
29
30
31
32
33
34
35
36
37
38
39
40
41
42
43
44
45
46
47
48
49
50
51
52
53
54
55
56
57
58
59
60
61
62
63
64
65
66
67
68
69
70
71
72
73
74
75
76
77
78
79
80
81
82
83
84
85
86
87
88
89
90
91
92
93
94
95
96
97
98
99
100
101
102
103
104
105
106
107
108
109
110
111
112
113
114
115
116
117
118
119
120
121
122
123
124
125
126
127
128
129
130
131
SCALARS is_boundary_point int 1
LOOKUP_TABLE default
1
1
1
1
1
1
1
1
1
1
1
1
1
1
1
1
1
1
1
1
1
1
1
1
1
1
1
1
1
1
1
1
1
1
1
1
1
1
1
1
1
1
1
1
1
1
1
1
1
1
1
1
1
1
1
1
1
1
1
1
1
1
1
1
1
1
1
1
1
1
1
1
1
1
1
1
1
1
1
1
1
1
1
1
1
1
1
1
1
1
1
1
1
1
1
1
1
1
1
1
1
1
1
1
1
1
1
1
1
1
1
1
1
1
1
1
1
1
1
1
1
1
1
1
1
1
1
1
1
1
1
1

CELL_DATA 192
SCALARS face_ids int 4
LOOKUP_TABLE default
220 249 257 210 
308 509 245 241 
312 230 353 468 
297 485 258 253 
404 505 268 398 
264 352 240 275 
255 349 388 282 
274 266 343 202 
414 344 250 171 
371 224 507 277 
198 323 216 486 
203 232 361 362 
296 341 358 295 
286 298 368 372 
366 470 206 229 
407 504 283 227 
306 276 304 180 
223 222 367 260 
273 335 456 235 
221 359 335 263 
339 461 218 342 
319 321 217 214 
301 480 321 306 
213 345 185 485 
388 205 265 292 
225 345 204 201 
303 205 200 239 
288 397 247 196 
283 192 354 230 
320 397 209 460 
183 192 174 477 
268 178 256 173 
333 178 293 254 
330 169 372 166 
233 169 170 338 
309 357 261 276 
279 357 285 444 
374 375 408 256 
416 505 417 380 
336 464 383 495 
380 173 506 432 
243 211 310 370 
363 417 334 237 
384 386 381 391 
392 393 331 261 
473 396 302 399 
401 234 403 394 
405 246 262 175 
409 324 410 421 
190 349 464 373 
424 415 425 428 
433 229 434 236 
435 492 330 313 
459 166 439 316 
427 441 299 208 
442 504 322 312 
443 445 387 377 
326 376 406 356 
488 446 337 365 
384 300 450 451 
452 455 457 462 
187 287 346 413 
219 300 465 467 
469 471 474 193 
476 478 479 350 
481 484 389 329 
472 487 489 491 
269 289 270 493 
347 496 497 499 
501 502 213 281 
418 480 309 272 
438 196 402 168 
508 430 288 510 
512 513 165 395 
162 161 511 159 
328 157 155 311 
215 318 154 152 
151 322 267 156 
150 492 224 459 
147 502 478 297 
145 144 143 369 
373 292 483 142 
184 141 140 291 
139 454 138 137 
136 134 132 247 
130 437 179 354 
164 129 128 265 
127 430 455 438 
126 124 122 280 
332 177 252 120 
119 118 197 185 
116 466 248 115 
114 359 113 111 
110 108 104 102 
101 118 201 500 
99 466 187 184 
98 96 325 167 
346 140 167 110 
325 95 104 113 
412 420 95 263 
94 129 239 379 
93 189 101 458 
273 100 97 189 
221 91 212 100 
97 90 500 89 
190 195 172 146 
88 177 324 251 
317 87 94 176 
476 85 436 87 
147 84 431 85 
436 83 379 82 
80 134 460 284 
336 146 220 424 
112 77 75 327 
257 425 327 126 
75 74 122 252 
340 92 74 251 
73 437 477 72 
503 71 80 294 
409 390 440 71 
88 259 69 390 
440 68 284 67 
442 429 244 238 
125 161 232 66 
278 64 73 378 
452 61 351 64 
127 453 60 61 
351 59 72 57 
315 375 254 109 
151 238 139 223 
56 107 348 55 
138 367 55 347 
348 54 497 511 
53 271 54 66 
52 419 135 65 
416 51 463 50 
52 323 211 79 
48 307 315 47 
203 46 242 307 
125 45 117 46 
242 44 109 43 
42 106 41 63 
40 509 234 39 
363 50 145 472 
494 38 37 58 
143 489 58 512 
37 290 165 216 
149 70 290 79 
186 298 338 426 
243 65 339 42 
78 36 131 35 
218 41 35 274 
131 355 343 245 
34 194 355 39 
121 33 314 423 
150 231 32 148 
121 484 446 31 
30 28 186 27 
401 498 26 28 
40 228 385 498 
26 49 426 25 
24 133 23 22 
21 289 445 29 
371 148 414 405 
191 182 158 20 
250 262 20 264 
158 490 240 389 
19 422 490 31 
305 393 444 382 
488 423 328 24 
207 18 17 400 
155 23 400 215 
17 16 154 270 
81 188 16 29 
15 449 14 13 
301 482 12 11 
10 9 299 465 
448 181 305 7 
443 8 105 181 
21 86 199 8 
105 364 382 6 
103 5 4 434 
319 11 469 473 
3 450 160 123 
76 62 10 226 
474 302 226 427 
411 2 9 451 
3 391 326 15 
1 360 0 163 
406 14 163 296 
0 153 358 470 
447 475 153 236 
